/*--------------------------------*- C++ -*----------------------------------*\
| =========                 |                                                 |
| \\      /  F ield         | OpenFOAM Extend Project: Open source CFD        |
|  \\    /   O peration     | Version:  1.6-ext                               |
|   \\  /    A nd           | Web:      www.extend-project.de                 |
|    \\/     M anipulation  |                                                 |
\*---------------------------------------------------------------------------*/
FoamFile
{
    version     2.0;
    format      ascii;
    class       volScalarField;
    location    "0";
    object      divFlux;
}
// * * * * * * * * * * * * * * * * * * * * * * * * * * * * * * * * * * * * * //

dimensions      [0 0 -1 0 0 0 0];

internalField   nonuniform List<scalar> 
2675
(
5.415595267e-15
2.42471643e-12
1.983588695e-12
1.952850961e-12
1.96947853e-12
2.002183649e-12
2.073580657e-12
2.149525918e-12
2.193189155e-12
2.33543315e-12
2.444802788e-12
2.562591985e-12
2.691296992e-12
2.820171235e-12
2.99245486e-12
3.197570531e-12
3.405393999e-12
3.692420548e-12
4.024464233e-12
4.453311683e-12
4.901790666e-12
5.479228512e-12
6.027388295e-12
6.480436687e-12
6.73125702e-12
6.845248954e-12
6.779140613e-12
6.453697185e-12
6.037711773e-12
5.958170218e-12
6.15617792e-12
5.553354472e-12
-1.167737729e-13
-8.786464846e-12
-6.31086086e-13
1.145516865e-11
8.633981992e-12
2.135944621e-12
-3.011578681e-13
-3.504905562e-13
1.006116058e-13
4.172970009e-13
5.273858985e-13
5.042426906e-13
4.373093178e-13
3.743530228e-13
3.104870771e-13
2.73931809e-13
1.937238815e-13
1.163982776e-13
3.125602347e-15
-1.426988198e-13
-2.920983811e-13
-4.605688764e-13
-6.244593859e-13
-7.691850875e-13
-8.930311307e-13
-9.755158295e-13
-1.01910833e-12
-1.005797416e-12
-9.515819658e-13
-8.526425705e-13
-7.158806102e-13
-5.438481975e-13
-3.609470777e-13
-1.778917602e-13
-4.73302665e-15
1.526388699e-13
2.653920989e-13
3.433990319e-13
3.755067787e-13
3.632106686e-13
3.220777698e-13
2.493701331e-13
1.570522627e-13
2.550745371e-12
3.870246696e-12
3.436427898e-12
3.473596652e-12
3.536426019e-12
3.655188331e-12
3.786854991e-12
3.965400397e-12
4.144368897e-12
4.340176513e-12
4.564331386e-12
4.787047741e-12
5.107921761e-12
5.378701524e-12
5.74391573e-12
6.179871149e-12
6.696045073e-12
7.30089937e-12
8.027266085e-12
8.866006402e-12
9.757548773e-12
1.059019654e-11
1.141945957e-11
1.205985371e-11
1.22568883e-11
1.207174263e-11
1.16719617e-11
1.086131478e-11
9.443444247e-12
7.30022242e-12
4.78264757e-12
8.163332916e-12
1.414011924e-11
2.799862753e-12
-7.652236112e-12
-9.511139188e-13
3.961507938e-12
3.640633918e-12
2.379815645e-12
1.524490068e-12
1.066533793e-12
8.615027409e-13
7.348285828e-13
6.662874552e-13
6.119622652e-13
5.612756782e-13
4.769531676e-13
3.481635426e-13
1.856745299e-13
-1.779107664e-14
-2.747779958e-13
-5.456846872e-13
-8.350223839e-13
-1.116273708e-12
-1.367924362e-12
-1.56396468e-12
-1.711180022e-12
-1.772483608e-12
-1.754319681e-12
-1.641039072e-12
-1.469331913e-12
-1.229531179e-12
-9.303671382e-13
-6.160556936e-13
-2.981899341e-13
4.765419737e-15
2.554941928e-13
4.60139668e-13
5.793824222e-13
6.417416762e-13
6.180672052e-13
5.424225711e-13
4.139904683e-13
2.476286225e-13
1.191430959e-13
1.987523463e-12
2.992327932e-12
2.732463978e-12
2.707628396e-12
2.817463438e-12
2.882958293e-12
3.019109743e-12
3.155938142e-12
3.298943704e-12
3.535875997e-12
3.728468104e-12
3.960492514e-12
4.168654457e-12
4.441803543e-12
4.768431633e-12
5.077797512e-12
5.516460729e-12
6.053958559e-12
6.685552357e-12
7.435612302e-12
8.302107545e-12
9.22275874e-12
1.007774584e-11
1.08663919e-11
1.118557355e-11
1.096488804e-11
1.06457064e-11
1.029233881e-11
1.04141897e-11
1.226767718e-11
9.295869276e-12
1.16665461e-11
1.246128471e-11
5.38919424e-12
-4.471250842e-12
-2.532806212e-12
7.24335867e-13
2.339198681e-12
2.472557714e-12
1.823024757e-12
1.22206292e-12
8.668337174e-13
7.232358242e-13
6.615488094e-13
6.292244751e-13
5.849689075e-13
5.26074309e-13
4.068889038e-13
2.663795922e-13
6.344285237e-14
-1.556560546e-13
-4.132035725e-13
-6.859401427e-13
-9.463118089e-13
-1.170921507e-12
-1.364523749e-12
-1.501997366e-12
-1.567600639e-12
-1.550856718e-12
-1.467955537e-12
-1.308225886e-12
-1.088567703e-12
-8.25646899e-13
-5.384894554e-13
-2.559655453e-13
1.009672687e-14
2.412696612e-13
4.089326431e-13
5.289587812e-13
5.69827949e-13
5.526053215e-13
4.773295719e-13
3.650248881e-13
2.261158528e-13
1.191430959e-13
1.7167437e-12
2.496335562e-12
2.238671694e-12
2.303870383e-12
2.361368774e-12
2.470188391e-12
2.580108051e-12
2.753830193e-12
2.93745272e-12
3.093151084e-12
3.354284319e-12
3.573277452e-12
3.849811286e-12
4.090128326e-12
4.379862672e-12
4.750153999e-12
5.13736906e-12
5.633572977e-12
6.252304736e-12
6.977994502e-12
7.876983316e-12
2.43728865e-11
2.4714069e-11
2.605307493e-11
2.719902335e-11
2.665814077e-11
2.384080426e-11
2.318687114e-11
6.772201882e-12
7.235235277e-12
1.542226142e-11
4.329226857e-11
2.805955298e-11
7.960925043e-13
-4.220102612e-12
1.333590335e-12
7.967694537e-13
4.559254266e-13
1.042163614e-12
1.334944233e-12
1.270295565e-12
1.06094896e-12
9.05081359e-13
8.136085702e-13
7.660528743e-13
7.101199294e-13
6.336246463e-13
5.119429901e-13
3.624217895e-13
1.425613145e-13
-9.092276742e-14
-3.589524238e-13
-6.364911039e-13
-9.075035686e-13
-1.152030388e-12
-1.350598688e-12
-1.482011492e-12
-1.553062093e-12
-1.530987195e-12
-1.441352218e-12
-1.282755665e-12
-1.057371177e-12
-7.977756226e-13
-5.088544084e-13
-2.244629377e-13
4.298099877e-14
2.553054535e-13
4.26424249e-13
5.268471155e-13
5.695992141e-13
5.363111856e-13
4.685212966e-13
3.561971108e-13
2.136368293e-13
1.137275006e-13
1.467626317e-12
1.86816882e-12
1.732101989e-12
1.76083003e-12
1.829371158e-12
1.927274966e-12
2.098543166e-12
2.263549584e-12
2.472050002e-12
2.723536707e-12
2.942022129e-12
3.200955278e-12
3.435179773e-12
3.736083785e-12
4.010925245e-12
4.301336541e-12
4.692613299e-12
5.163770087e-12
5.676897739e-12
1.686416366e-11
3.216051249e-11
-0
0
0
-0
0
-0
-0
0
3.717264591e-11
-1.957832462e-10
-3.641987817e-12
9.168738177e-11
3.316916711e-11
-5.073735816e-12
-3.168123231e-13
1.670034191e-12
1.285526927e-12
9.670222299e-13
1.014747163e-12
1.087857699e-12
1.0724571e-12
1.020839708e-12
9.687146034e-13
9.148971254e-13
8.62518165e-13
7.635566233e-13
6.336246463e-13
4.651488622e-13
2.412901548e-13
-2.189508243e-14
-3.085831569e-13
-5.963501195e-13
-8.841382367e-13
-1.131563245e-12
-1.338413599e-12
-1.472312077e-12
-1.533115884e-12
-1.514319961e-12
-1.420226637e-12
-1.256529164e-12
-1.023068881e-12
-7.592172719e-13
-4.652149706e-13
-1.881297937e-13
7.940867772e-14
2.885324972e-13
4.473915009e-13
5.438891846e-13
5.621408711e-13
5.385388714e-13
4.490723054e-13
3.408173359e-13
2.091820361e-13
1.028963101e-13
1.12102822e-12
1.102242874e-12
1.062302859e-12
1.159783574e-12
1.227563133e-12
1.381399887e-12
1.502489212e-12
1.702189287e-12
1.935567596e-12
2.205839647e-12
2.452926181e-12
2.75789189e-12
3.022579108e-12
3.270342592e-12
3.562784736e-12
3.865381122e-12
4.161884963e-12
4.551807822e-12
2.264531161e-11
-0
0
0
0
0
0
0
0
0
0
-0
0
-3.021902159e-10
-1.091784006e-11
5.120039155e-11
1.539924514e-11
6.47705194e-12
2.885835328e-12
1.961799386e-12
1.433440372e-12
1.204969947e-12
1.139305854e-12
1.123905255e-12
1.112566353e-12
1.091242446e-12
1.053587135e-12
9.975695719e-13
8.994965264e-13
7.60764207e-13
5.632219078e-13
3.283204631e-13
5.146930971e-14
-2.479961848e-13
-5.469222353e-13
-8.407500106e-13
-1.105701663e-12
-1.304053128e-12
-1.43868673e-12
-1.503240203e-12
-1.474845348e-12
-1.377769216e-12
-1.205874309e-12
-9.697908472e-13
-7.002658201e-13
-4.167760672e-13
-1.342395966e-13
1.148229158e-13
3.233431661e-13
4.575308676e-13
5.474471355e-13
5.604301526e-13
5.205137712e-13
4.412308646e-13
3.306705319e-13
1.967756491e-13
9.748071481e-14
7.0944298e-13
2.869419305e-13
4.053234583e-13
4.309629171e-13
5.466366473e-13
6.819419103e-13
8.710646513e-13
1.126105341e-12
1.370145603e-12
1.67071114e-12
1.954691417e-12
2.267442043e-12
2.503358912e-12
2.804601399e-12
3.051687933e-12
3.289974125e-12
3.544507102e-12
1.094762583e-11
-0
0
0
0
0
0
0
0
0
0
0
0
0
0
-9.744551344e-11
-1.966267252e-11
-4.21062532e-12
5.825826609e-12
4.074558489e-12
2.70035119e-12
1.85348748e-12
1.445625462e-12
1.278080483e-12
1.225955379e-12
1.212247153e-12
1.197015791e-12
1.168753154e-12
1.113581777e-12
1.014112523e-12
8.576949004e-13
6.566409261e-13
4.090043707e-13
1.163506796e-13
-1.846802605e-13
-5.018733676e-13
-7.897672582e-13
-1.053280393e-12
-1.242709876e-12
-1.382848981e-12
-1.434498106e-12
-1.414258376e-12
-1.302741538e-12
-1.134971792e-12
-9.000703468e-13
-6.421394005e-13
-3.578867573e-13
-8.868367792e-14
1.533726725e-13
3.40200793e-13
4.746178904e-13
5.476084399e-13
5.53266157e-13
5.103312688e-13
4.255965726e-13
3.172342596e-13
1.957298978e-13
1.028963101e-13
2.274550012e-13
-5.451981298e-13
-3.87765083e-13
-2.782262069e-13
-1.761760835e-13
-1.971615152e-14
2.376092423e-13
4.476327963e-13
7.754455473e-13
1.080072781e-12
1.407039345e-12
1.69948149e-12
2.037617719e-12
2.273196113e-12
2.524344344e-12
2.705089836e-12
2.882450581e-12
1.118049643e-11
-0
0
0
0
0
0
0
0
0
0
0
0
0
0
1.267113903e-10
6.437788874e-12
-1.225143039e-11
-1.638894518e-12
1.008654619e-12
1.767514905e-12
1.654802829e-12
1.422609182e-12
1.297035066e-12
1.256756577e-12
1.256079627e-12
1.267503149e-12
1.240679028e-12
1.179499725e-12
1.079903544e-12
9.322862634e-13
7.221357814e-13
4.615102592e-13
1.702104669e-13
-1.301223691e-13
-4.443749773e-13
-7.359074709e-13
-9.901548605e-13
-1.182440224e-12
-1.305470491e-12
-1.35424258e-12
-1.326604005e-12
-1.219973896e-12
-1.046050785e-12
-8.265710937e-13
-5.693488288e-13
-2.97836585e-13
-5.436221069e-14
1.837038403e-13
3.525739606e-13
4.744813767e-13
5.332140098e-13
5.345664212e-13
4.924954037e-13
4.091240268e-13
3.051673389e-13
1.805773289e-13
9.748071481e-14
-2.599485728e-13
-1.4584875e-12
-1.141463631e-12
-1.027059181e-12
-9.044890283e-13
-7.047043341e-13
-4.819033601e-13
-1.643294689e-13
1.242202164e-13
4.962039164e-13
8.306169241e-13
1.167399255e-12
1.470334115e-12
1.740436929e-12
1.980753969e-12
2.201439476e-12
6.4080031e-12
-0
0
0
0
0
0
0
0
0
0
0
0
0
0
0
0
3.631562796e-11
4.137514784e-12
2.236640845e-12
1.095981092e-12
1.279434382e-12
1.345775424e-12
1.289588623e-12
1.225447667e-12
1.220370546e-12
1.238986655e-12
1.259295137e-12
1.255571915e-12
1.203616048e-12
1.101819781e-12
9.529332203e-13
7.365632657e-13
4.857535099e-13
2.020059344e-13
-1.055617984e-13
-4.051859529e-13
-6.822592303e-13
-9.190540179e-13
-1.112233167e-12
-1.224337046e-12
-1.26118848e-12
-1.231534923e-12
-1.136616567e-12
-9.695171587e-13
-7.527545205e-13
-5.066331682e-13
-2.604701676e-13
-1.915158629e-14
1.905295265e-13
3.572504646e-13
4.607096872e-13
5.254581793e-13
5.120517383e-13
4.709971366e-13
3.952352429e-13
3.018838203e-13
1.835256783e-13
9.748071481e-14
-7.798457185e-13
-2.315378523e-12
-1.916613013e-12
-1.771618911e-12
-1.603227746e-12
-1.413385746e-12
-1.102158256e-12
-8.008311501e-13
-4.567716133e-13
-9.934232568e-14
2.770415454e-13
6.068851446e-13
9.05081359e-13
1.179922819e-12
1.414147314e-12
1.623324681e-12
5.055458182e-12
-0
0
0
0
0
0
0
0
0
0
0
0
0
0
0
0
7.296160724e-12
5.483290208e-13
2.473573138e-12
1.410762567e-12
1.02964005e-12
9.981619027e-13
1.012039366e-12
1.025747591e-12
1.081088205e-12
1.125174535e-12
1.167991586e-12
1.184153753e-12
1.143621407e-12
1.056421861e-12
9.101584796e-13
7.064813263e-13
4.614679498e-13
1.890804316e-13
-1.130082419e-13
-3.868237002e-13
-6.575505769e-13
-8.781990634e-13
-1.048827335e-12
-1.151276753e-12
-1.184415542e-12
-1.160090317e-12
-1.043569078e-12
-8.962175527e-13
-6.925575876e-13
-4.657656531e-13
-2.231758083e-13
-1.076243786e-15
1.967486686e-13
3.434695199e-13
4.454148615e-13
4.996835289e-13
4.902353248e-13
4.600228215e-13
3.882235443e-13
2.908942176e-13
1.81406121e-13
9.206511954e-14
-1.261833697e-12
-3.136983559e-12
-2.586835236e-12
-2.451022261e-12
-2.268795942e-12
-2.021794027e-12
-1.735571355e-12
-1.407716295e-12
-1.037171112e-12
-6.693337276e-13
-2.851649383e-13
3.384747042e-14
3.408440271e-13
6.09931417e-13
8.830805033e-13
2.24273339e-12
-0
0
0
0
0
0
0
0
0
0
0
0
0
0
0
0
0
0
4.5775319e-12
6.417480392e-13
7.51752318e-13
6.349785451e-13
6.124699772e-13
6.595179611e-13
7.388902793e-13
8.261321343e-13
9.188742032e-13
9.912231712e-13
1.035140264e-12
1.006708389e-12
9.330901408e-13
7.945482134e-13
6.119093785e-13
3.769233151e-13
1.069156972e-13
-1.575123768e-13
-4.312802372e-13
-6.732737847e-13
-8.773766756e-13
-1.017674441e-12
-1.110331891e-12
-1.132808727e-12
-1.100760725e-12
-9.981870238e-13
-8.555291912e-13
-6.598213984e-13
-4.440338582e-13
-2.207661593e-13
-7.610061635e-15
1.722892436e-13
3.222953489e-13
4.21858807e-13
4.754677131e-13
4.702183803e-13
4.420932479e-13
3.794211361e-13
2.933561336e-13
1.892896232e-13
9.206511954e-14
-1.72757489e-12
-3.89300912e-12
-3.227409191e-12
-3.069225154e-12
-2.856102441e-12
-2.620217304e-12
-2.305795458e-12
-1.940517789e-12
-1.596669798e-12
-1.198496618e-12
-8.328170097e-13
-5.103352353e-13
-2.13408301e-13
2.961653662e-15
3.103813037e-13
1.048763871e-12
-0
0
0
0
0
0
0
0
0
0
0
0
0
0
0
0
0
0
4.715798816e-12
2.354091568e-13
-7.294129875e-14
-4.704798388e-14
4.958654416e-14
1.917459199e-13
3.33947605e-13
4.802532959e-13
6.132950093e-13
7.261974779e-13
7.839391469e-13
7.78248541e-13
7.341410561e-13
6.056475965e-13
4.311004225e-13
2.10785122e-13
-2.570027852e-14
-2.755527856e-13
-5.223933966e-13
-7.456756393e-13
-9.257190608e-13
-1.047604331e-12
-1.121239767e-12
-1.132213752e-12
-1.088943859e-12
-9.875263928e-13
-8.480358108e-13
-6.590380146e-13
-4.474143082e-13
-2.458331199e-13
-4.651184524e-14
1.370283769e-13
2.769630417e-13
3.801622933e-13
4.365989011e-13
4.606353979e-13
4.338566445e-13
3.759566046e-13
2.913479688e-13
1.826629438e-13
1.028963101e-13
-2.171653702e-12
-4.5165377e-12
-3.7892772e-12
-3.594950411e-12
-3.367823307e-12
-3.10781127e-12
-2.782558234e-12
-2.423013479e-12
-2.082952175e-12
-1.695081319e-12
-1.369299416e-12
-1.085530686e-12
-7.971079284e-13
-6.728877119e-13
-8.211396324e-13
7.505676566e-13
-0
0
0
0
0
0
0
0
0
0
0
0
0
0
0
0
0
0
-3.837287721e-12
-5.787917442e-13
-8.885807172e-13
-8.56764095e-13
-6.671759513e-13
-4.117544777e-13
-1.793492839e-13
3.018771268e-14
2.175546161e-13
3.650872778e-13
4.494097885e-13
4.796292332e-13
4.336548488e-13
3.364227013e-13
1.71781201e-13
-2.502861778e-14
-2.364986222e-13
-4.805891263e-13
-6.935214472e-13
-8.812691347e-13
-1.03078108e-12
-1.145943132e-12
-1.180510191e-12
-1.188327172e-12
-1.119514009e-12
-1.024210076e-12
-8.676832096e-13
-6.945305084e-13
-4.948145669e-13
-2.947226343e-13
-9.34298436e-14
8.879854116e-14
2.34605362e-13
3.37212696e-13
4.043315439e-13
4.370800458e-13
4.208761478e-13
3.726432132e-13
2.908006537e-13
1.847892773e-13
9.748071481e-14
-2.523667394e-12
-4.996732821e-12
-4.24895758e-12
-3.975956577e-12
-3.800478597e-12
-3.482820088e-12
-3.192281863e-12
-2.888543126e-12
-2.47856564e-12
-2.179354002e-12
-1.899181565e-12
-1.62789409e-12
-1.42210147e-12
-1.293988794e-12
-2.253903055e-12
-1.230694024e-12
-0
0
0
0
0
0
0
0
0
0
0
0
0
0
0
0
0
0
-5.384455594e-12
-1.883611729e-12
-1.786807963e-12
-1.644310113e-12
-1.413808839e-12
-1.102073637e-12
-7.962617416e-13
-5.100813792e-13
-2.726413742e-13
-9.096507675e-14
3.625910269e-14
8.686107096e-14
7.45490536e-14
-1.404670022e-14
-1.513405021e-13
-3.348995651e-13
-5.316485643e-13
-7.381551545e-13
-9.278966696e-13
-1.089177222e-12
-1.216208365e-12
-1.287462579e-12
-1.305174325e-12
-1.285278359e-12
-1.217062485e-12
-1.09998858e-12
-9.535513333e-13
-7.741247027e-13
-5.792346701e-13
-3.680109192e-13
-1.674821757e-13
1.900515632e-14
1.711548245e-13
2.866654323e-13
3.688382237e-13
4.108907722e-13
4.07993037e-13
3.670390853e-13
2.867466836e-13
1.938369061e-13
1.028963101e-13
-2.832356325e-12
-5.404764077e-12
-4.577320353e-12
-4.352869315e-12
-4.095163137e-12
-3.828571998e-12
-3.519967686e-12
-3.172946496e-12
-2.889897024e-12
-2.580700382e-12
-2.37440005e-12
-2.16793048e-12
-2.027463478e-12
-1.714712851e-12
-2.0592801e-12
-7.776117854e-12
-0
0
0
0
0
0
0
0
0
0
0
0
0
0
0
0
0
0
-7.242004771e-12
-3.30689786e-12
-3.008363171e-12
-2.601855051e-12
-2.220732534e-12
-1.842317815e-12
-1.45273343e-12
-1.119674321e-12
-8.32478535e-13
-6.035003976e-13
-4.456442574e-13
-3.646641844e-13
-3.778646979e-13
-4.305821331e-13
-5.47292442e-13
-7.111776629e-13
-8.862960129e-13
-1.067866537e-12
-1.229107424e-12
-1.355564747e-12
-1.444535996e-12
-1.484132248e-12
-1.485734714e-12
-1.437454471e-12
-1.347077758e-12
-1.220152388e-12
-1.064177692e-12
-8.785282829e-13
-6.710036242e-13
-4.641466598e-13
-2.578621936e-13
-6.996311801e-14
9.889444167e-14
2.314360455e-13
3.337234978e-13
3.808146173e-13
3.933856141e-13
3.559410236e-13
2.875661585e-13
1.846419796e-13
9.206511954e-14
-3.048980135e-12
-5.666489642e-12
-4.814252646e-12
-4.557138799e-12
-4.327399093e-12
-4.047057419e-12
-3.770015874e-12
-3.492043523e-12
-3.199601379e-12
-2.980777483e-12
-2.797154955e-12
-2.777523423e-12
-2.841833616e-12
-2.812047842e-12
-1.587446363e-12
-3.441610792e-12
-2.138077011e-11
-0
0
0
0
0
0
0
0
0
0
0
0
0
0
0
0
-1.803393224e-11
-5.081182259e-12
-4.576178001e-12
-4.024464233e-12
-3.55872304e-12
-3.077412011e-12
-2.607609121e-12
-2.177746247e-12
-1.780038469e-12
-1.441563765e-12
-1.180599768e-12
-1.000785082e-12
-8.901038534e-13
-8.617142875e-13
-8.998773104e-13
-1.009712352e-12
-1.13448259e-12
-1.284342265e-12
-1.437311677e-12
-1.559501045e-12
-1.654422045e-12
-1.714860934e-12
-1.72749556e-12
-1.69721794e-12
-1.628095059e-12
-1.51521639e-12
-1.369758208e-12
-1.199489566e-12
-1.001677544e-12
-7.934851913e-13
-5.725702882e-13
-3.585174309e-13
-1.538658407e-13
2.798035519e-14
1.734587002e-13
2.822492299e-13
3.450972725e-13
3.676669905e-13
3.358725973e-13
2.811404278e-13
1.77584749e-13
1.028963101e-13
-3.200616803e-12
-5.821299509e-12
-4.938092078e-12
-4.707675423e-12
-4.491051613e-12
-4.249973005e-12
-3.954569206e-12
-3.708667334e-12
-3.44178003e-12
-3.30689786e-12
-3.184708492e-12
-3.228371729e-12
-3.562107787e-12
-4.394755559e-12
-3.965569634e-12
-4.183547344e-12
4.65673498e-11
-0
0
0
0
0
0
0
0
0
0
0
0
0
0
0
0
-1.467897097e-11
-7.214926795e-12
-6.041096521e-12
-5.113675831e-12
-4.47395864e-12
-3.917167752e-12
-3.389485688e-12
-2.896666519e-12
-2.457326352e-12
-2.086019602e-12
-1.799670002e-12
-1.583638522e-12
-1.447994785e-12
-1.399339046e-12
-1.408985575e-12
-1.487850181e-12
-1.592692721e-12
-1.709699195e-12
-1.820295805e-12
-1.918093839e-12
-1.978828894e-12
-1.994768937e-12
-1.980336164e-12
-1.926793697e-12
-1.820713609e-12
-1.699156237e-12
-1.532087238e-12
-1.354885153e-12
-1.146747009e-12
-9.223753009e-13
-6.940060214e-13
-4.686321107e-13
-2.49630383e-13
-5.439592595e-14
1.044934876e-13
2.239839828e-13
3.052853423e-13
3.400434551e-13
3.219345626e-13
2.603954652e-13
1.716197314e-13
8.664952427e-14
-3.319759899e-12
-5.901898798e-12
-5.025630099e-12
-4.762931419e-12
-4.551130873e-12
-4.300151879e-12
-4.063558061e-12
-3.861319425e-12
-3.669235031e-12
-3.549922698e-12
-3.51269048e-12
-3.644018665e-12
-4.005509649e-12
-5.760839465e-12
-9.880076616e-12
-2.638884184e-11
6.959039918e-13
1.165544413e-10
-0
0
0
0
0
0
0
0
0
0
0
0
0
0
-3.183557678e-11
-5.128568718e-12
-7.504661141e-12
-6.873067343e-12
-6.026880583e-12
-5.326237945e-12
-4.710552458e-12
-4.131422239e-12
-3.611186619e-12
-3.148660936e-12
-2.7457068e-12
-2.42297117e-12
-2.179184764e-12
-2.016124576e-12
-1.946568024e-12
-1.92570952e-12
-1.973646e-12
-2.034529138e-12
-2.120713259e-12
-2.207764722e-12
-2.258969598e-12
-2.285740832e-12
-2.282133961e-12
-2.228041472e-12
-2.145982511e-12
-2.029906842e-12
-1.882786697e-12
-1.699087484e-12
-1.504517416e-12
-1.286780341e-12
-1.05501772e-12
-8.15833777e-13
-5.740848303e-13
-3.47730533e-13
-1.390727773e-13
4.112335439e-14
1.743891751e-13
2.663923181e-13
3.060988054e-13
2.989622448e-13
2.451803001e-13
1.582050269e-13
8.123392901e-14
-3.308928708e-12
-5.883113452e-12
-5.019072151e-12
-4.807779317e-12
-4.594032541e-12
-4.359723427e-12
-4.170685305e-12
-4.009740583e-12
-3.888905114e-12
-3.769254306e-12
-3.724575645e-12
-3.607124923e-12
-3.543830153e-12
-3.679220035e-12
-3.815286866e-12
-1.400202156e-11
-3.403701625e-11
-1.598819113e-10
-0
0
0
0
0
0
0
0
0
0
0
0
0
0
-2.609775359e-11
-8.013727097e-12
-8.25065939e-12
-7.562201841e-12
-6.778971376e-12
-6.097283321e-12
-5.430149679e-12
-4.84018827e-12
-4.29625942e-12
-3.809025084e-12
-3.383223906e-12
-3.033410299e-12
-2.768046131e-12
-2.589331487e-12
-2.473911613e-12
-2.424705853e-12
-2.434056217e-12
-2.463545825e-12
-2.508034094e-12
-2.550364587e-12
-2.57686081e-12
-2.56868453e-12
-2.539998799e-12
-2.456924414e-12
-2.35555124e-12
-2.205294915e-12
-2.045447591e-12
-1.859146354e-12
-1.652771981e-12
-1.420144663e-12
-1.17866676e-12
-9.338536921e-13
-6.818077104e-13
-4.45165633e-13
-2.250046956e-13
-3.55910779e-14
1.13176157e-13
2.147985594e-13
2.661602778e-13
2.669710139e-13
2.245285503e-13
1.438529062e-13
8.123392901e-14
-3.314344304e-12
-5.864793509e-12
-4.987001673e-12
-4.743469123e-12
-4.561200495e-12
-4.413625524e-12
-4.193701585e-12
-4.100113329e-12
-4.052219159e-12
-4.121437236e-12
-4.210286846e-12
-4.107390535e-12
-3.727960392e-12
-3.87892011e-12
-4.515929503e-12
3.055749629e-12
4.478155726e-11
-1.404805412e-11
-4.030313076e-10
-0
0
0
0
0
0
0
0
0
0
-0
0
-3.227559389e-11
-8.418542843e-12
-9.18891127e-12
-8.769879586e-12
-8.096314924e-12
-7.40311873e-12
-6.720753727e-12
-6.091867726e-12
-5.491413601e-12
-4.926668557e-12
-4.424879808e-12
-3.988078202e-12
-3.62134086e-12
-3.316205914e-12
-3.105420792e-12
-2.967323113e-12
-2.877119604e-12
-2.84928006e-12
-2.841791307e-12
-2.855520687e-12
-2.852157095e-12
-2.847228057e-12
-2.810355469e-12
-2.744416366e-12
-2.65241471e-12
-2.518717202e-12
-2.373315873e-12
-2.192744907e-12
-1.998116664e-12
-1.783009378e-12
-1.540734209e-12
-1.291983067e-12
-1.03890249e-12
-7.838234573e-13
-5.331307133e-13
-3.029381657e-13
-1.001819016e-13
4.937962506e-14
1.626205683e-13
2.255005081e-13
2.331765955e-13
2.029859079e-13
1.258229305e-13
7.040273847e-14
-3.314344304e-12
-5.766847391e-12
-4.934326547e-12
-4.738349693e-12
-4.516352597e-12
-4.393824754e-12
-4.226364394e-12
-4.09943638e-12
-4.096559345e-12
-4.361077326e-12
-4.879112861e-12
-5.383101696e-12
-5.04598089e-12
-3.93578386e-12
-7.803195831e-12
-1.671997344e-11
1.957128435e-11
7.507098159e-11
-5.511722083e-12
-2.410075284e-10
-4.271821547e-11
-0
0
0
-0
0
-0
-0
0
-3.69600838e-11
-1.855789108e-11
-9.808996928e-12
-1.038981952e-11
-9.835397955e-12
-9.183495674e-12
-8.534301192e-12
-7.897291798e-12
-7.262651728e-12
-6.630719455e-12
-6.045835166e-12
-5.48701343e-12
-4.971177981e-12
-4.51745264e-12
-4.128968298e-12
-3.816979239e-12
-3.570400417e-12
-3.387962552e-12
-3.270173355e-12
-3.198289789e-12
-3.155091955e-12
-3.128712083e-12
-3.098587834e-12
-3.059652666e-12
-3.000853263e-12
-2.908989113e-12
-2.796377521e-12
-2.660903021e-12
-2.496793032e-12
-2.312152436e-12
-2.108023102e-12
-1.888633318e-12
-1.64585837e-12
-1.390424997e-12
-1.126540334e-12
-8.65664922e-13
-6.119642484e-13
-3.706420311e-13
-1.710011226e-13
-7.213576862e-15
1.117748255e-13
1.799138491e-13
1.979953893e-13
1.787061324e-13
1.191732991e-13
6.498714321e-14
-3.233110374e-12
-5.715949258e-12
-4.842303737e-12
-4.678185815e-12
-4.529256945e-12
-4.372754704e-12
-4.254965506e-12
-4.097913244e-12
-4.019217875e-12
-4.057634754e-12
-4.604609876e-12
-5.911460709e-12
-7.631250681e-12
-7.420719415e-12
-6.826357834e-12
-1.200163606e-11
-6.860205305e-12
9.366948964e-12
1.926665711e-11
-1.97940007e-12
-8.123392901e-15
-4.03895095e-11
-2.621012719e-11
-2.710911601e-11
-2.555230161e-11
-2.410396835e-11
-2.402358061e-11
-2.477905614e-11
-2.229194402e-11
-8.177548853e-12
-1.037763443e-11
-1.091377836e-11
-1.062201317e-11
-1.006826855e-11
-9.477291718e-12
-8.894099802e-12
-8.294661101e-12
-7.679652564e-12
-7.081567761e-12
-6.496006523e-12
-5.939384872e-12
-5.431842053e-12
-4.963731537e-12
-4.569154651e-12
-4.208763709e-12
-3.943441851e-12
-3.741245524e-12
-3.57852381e-12
-3.480450765e-12
-3.392701198e-12
-3.344045459e-12
-3.282337289e-12
-3.217032826e-12
-3.138818726e-12
-3.032987206e-12
-2.90828572e-12
-2.759898939e-12
-2.587078515e-12
-2.402348012e-12
-2.195356187e-12
-1.960140066e-12
-1.728140778e-12
-1.47018471e-12
-1.207421244e-12
-9.340645777e-13
-6.81468244e-13
-4.408765239e-13
-2.244214547e-13
-5.44069991e-14
6.93440134e-14
1.440815584e-13
1.656795665e-13
1.563806846e-13
1.032353632e-13
4.87403574e-14
-3.195201208e-12
-5.603427573e-12
-4.817383537e-12
-4.622549035e-12
-4.487116844e-12
-4.405375203e-12
-4.254161629e-12
-4.222387316e-12
-4.079297135e-12
-3.935276148e-12
-3.756392267e-12
-4.015325416e-12
-5.566216511e-12
-8.885976409e-12
-1.416855112e-11
-1.634189719e-11
-1.461195298e-12
4.291859249e-12
-4.760985189e-12
-9.695269427e-12
-7.943324358e-12
-9.881430514e-12
-1.066736878e-11
-1.112024793e-11
-1.104002943e-11
-9.689515357e-12
-1.07299866e-11
-1.365880821e-11
-1.306512358e-11
-1.12089283e-11
-1.103292146e-11
-1.093814854e-11
-1.062945961e-11
-1.016710316e-11
-9.662098906e-12
-9.13712464e-12
-8.552578826e-12
-7.99240319e-12
-7.403457205e-12
-6.835158177e-12
-6.290213903e-12
-5.770316757e-12
-5.296282934e-12
-4.883851507e-12
-4.525533723e-12
-4.230933802e-12
-3.981351017e-12
-3.809998198e-12
-3.670313919e-12
-3.577751665e-12
-3.488256837e-12
-3.409487427e-12
-3.325492814e-12
-3.223855207e-12
-3.111047934e-12
-2.977598993e-12
-2.813325056e-12
-2.645174525e-12
-2.45526245e-12
-2.251527121e-12
-2.02779402e-12
-1.781463104e-12
-1.526988963e-12
-1.254136703e-12
-9.962146815e-13
-7.281589123e-13
-4.837114232e-13
-2.729631566e-13
-1.001557888e-13
2.922608423e-14
1.069390004e-13
1.396628769e-13
1.281749e-13
8.799966318e-14
4.87403574e-14
-3.157292041e-12
-5.573451407e-12
-4.763756451e-12
-4.591832456e-12
-4.470256573e-12
-4.383374347e-12
-4.33848414e-12
-4.317794873e-12
-4.366535231e-12
-4.462365881e-12
-4.412440863e-12
-4.088266715e-12
-3.319844517e-12
-3.460565376e-12
-1.029301575e-11
-2.168015099e-11
-1.415213509e-11
-1.729944213e-12
-6.99728756e-12
-1.180227446e-11
-1.206865405e-11
-1.174676461e-11
-1.140456668e-11
-1.148292358e-11
-1.172449932e-11
-1.052878454e-11
-9.70593138e-12
-1.106101486e-11
-1.207406965e-11
-1.134567208e-11
-1.093984091e-11
-1.077906543e-11
-1.057598061e-11
-1.022955175e-11
-9.779718866e-12
-9.270483673e-12
-8.740432286e-12
-8.175094912e-12
-7.618473261e-12
-7.040019991e-12
-6.510476317e-12
-5.984063533e-12
-5.509014286e-12
-5.076528232e-12
-4.707654269e-12
-4.406369473e-12
-4.153042311e-12
-3.942743747e-12
-3.797337129e-12
-3.668896556e-12
-3.571431707e-12
-3.475109211e-12
-3.379804782e-12
-3.270337303e-12
-3.151622589e-12
-3.009834743e-12
-2.854295039e-12
-2.686608588e-12
-2.492655311e-12
-2.281317523e-12
-2.059955728e-12
-1.810280721e-12
-1.552963261e-12
-1.285665919e-12
-1.016169154e-12
-7.595327739e-13
-5.191965625e-13
-2.999089989e-13
-1.342371175e-13
-2.887157825e-15
8.140291845e-14
1.150376853e-13
1.078288186e-13
7.247983155e-14
4.332476214e-14
-3.103136088e-12
-2.415355489e-12
-2.301627989e-12
-2.22039406e-12
-2.144575726e-12
-2.063341797e-12
-2.047095011e-12
-2.12832894e-12
-2.431602275e-12
-2.881096682e-12
-3.536383709e-12
-3.877566211e-12
-2.355783941e-12
2.431602275e-12
4.067112046e-12
-6.791156465e-12
-1.454628889e-11
-8.437497426e-12
-4.689905501e-12
-4.576178001e-12
-5.3776861e-12
-5.892167651e-12
-5.886752055e-12
-5.892167651e-12
-6.287506105e-12
-5.98423277e-12
-4.917360503e-12
-4.695321097e-12
-5.437257648e-12
-5.691790626e-12
-5.578063125e-12
-5.36685491e-12
-5.155646694e-12
-4.928191693e-12
-4.679074311e-12
-4.413710143e-12
-4.126683594e-12
-3.84507264e-12
-3.558046091e-12
-3.276435137e-12
-3.016486564e-12
-2.772784777e-12
-2.561576561e-12
-2.372030727e-12
-2.204147274e-12
-2.074172987e-12
-1.982107868e-12
-1.900873939e-12
-1.841302391e-12
-1.792562033e-12
-1.754652867e-12
-1.695081319e-12
-1.646340961e-12
-1.581353818e-12
-1.516366675e-12
-1.440548341e-12
-1.353898817e-12
-1.256418102e-12
-1.158937387e-12
-1.039794291e-12
-9.152356002e-13
-7.90676909e-13
-6.498714321e-13
-5.144815504e-13
-3.790916687e-13
-2.599485728e-13
-1.408054769e-13
-5.957154794e-14
1.083119053e-14
5.415595267e-14
6.498714321e-14
6.498714321e-14
4.87403574e-14
1.62467858e-14
0
1.43106208e-14
7.993374541e-11
6.022867497e-11
5.426977794e-11
5.002294516e-11
4.629227717e-11
4.27670342e-11
3.957419736e-11
1.73365122e-10
-0
6.557126635e-11
8.689803122e-11
7.032873992e-11
6.256556394e-11
5.67777853e-11
5.152329486e-11
4.651034399e-11
4.188176155e-11
1.516456782e-10
-0
4.411964629e-11
6.931828811e-11
5.592205214e-11
5.017670647e-11
4.59143345e-11
4.224710799e-11
3.877982953e-11
3.499973512e-11
1.458961291e-10
0
4.194443277e-11
6.453118969e-11
5.199994744e-11
4.643690445e-11
4.177090334e-11
3.742615082e-11
3.379582158e-11
3.130966791e-11
1.518994859e-10
-0
3.883902858e-11
5.909499257e-11
4.761641818e-11
4.275801097e-11
3.818457202e-11
3.195131624e-11
2.353088471e-11
1.539053187e-11
1.939620104e-10
-0
3.53758586e-11
5.330720013e-11
4.251511756e-11
3.80436668e-11
3.523658437e-11
3.208430872e-11
2.415653729e-11
6.93285529e-12
2.038114183e-10
-0
3.202717339e-11
4.758702176e-11
3.695239239e-11
2.95164284e-11
2.108856214e-11
1.515000021e-11
1.73910104e-11
3.261085054e-11
2.600672389e-10
-0
2.915073854e-11
4.369243219e-11
3.445301136e-11
2.794498037e-11
8.73950878e-12
-3.474414861e-11
-1.057246192e-10
-1.730062565e-10
1.137767337e-09
-0
2.535842368e-11
4.173161456e-11
3.277393998e-11
3.728839821e-11
5.430565984e-11
7.709100458e-11
8.246944523e-11
3.81103743e-11
8.471952547e-10
-0
2.117972189e-11
3.401004892e-11
2.087944795e-11
-1.272994978e-11
-7.360685956e-11
-1.639458359e-10
-2.585428251e-10
-2.715605608e-10
2.388797975e-09
-0
2.551584062e-11
2.538245003e-11
4.042589247e-11
6.628101123e-11
9.20608026e-11
7.981179864e-11
-2.675458545e-11
-2.292823407e-10
8.484593785e-10
-0
3.015248234e-11
4.058216957e-11
2.098839527e-11
-8.837874193e-12
-5.207725918e-11
-1.062661152e-10
-1.666461787e-10
-1.757255229e-10
1.397751615e-09
-0
3.38446228e-12
2.484829593e-11
4.309830756e-11
7.895614224e-11
1.039281957e-10