/*--------------------------------*- C++ -*----------------------------------*\
| =========                 |                                                 |
| \\      /  F ield         | OpenFOAM Extend Project: Open source CFD        |
|  \\    /   O peration     | Version:  1.6-ext                               |
|   \\  /    A nd           | Web:      www.extend-project.de                 |
|    \\/     M anipulation  |                                                 |
\*---------------------------------------------------------------------------*/
FoamFile
{
    version     2.0;
    format      ascii;
    class       volVectorField;
    location    "0";
    object      U;
}
// * * * * * * * * * * * * * * * * * * * * * * * * * * * * * * * * * * * * * //

dimensions      [0 1 -1 0 0 0 0];

internalField   nonuniform List<vector> 
2675
(
(1.001621845 -0.001623466868 0)
(1.004956967 -0.001714989898 0)
(1.008571017 -0.001902674967 0)
(1.012665533 -0.002195934754 0)
(1.017465878 -0.002609211073 0)
(1.023231641 -0.003162317118 0)
(1.030267724 -0.003880802321 0)
(1.038936087 -0.004796229095 0)
(1.049667754 -0.005946169771 0)
(1.062974215 -0.00737359789 0)
(1.079456472 -0.009125140821 0)
(1.099808615 -0.01124735397 0)
(1.124810764 -0.01377979754 0)
(1.155303513 -0.01674344454 0)
(1.192133657 -0.02012352914 0)
(1.236062591 -0.02384933429 0)
(1.287643918 -0.02778357378 0)
(1.347122849 -0.03175483582 0)
(1.414493574 -0.03568326042 0)
(1.489728247 -0.0396266474 0)
(1.570692828 -0.04141889825 0)
(1.653297717 -0.04126859572 0)
(1.715354981 -0.02085072517 0)
(1.759767164 -0.02360586992 0)
(1.78320212 0.0001474788438 0)
(1.783204841 -0.0001502020402 0)
(1.759775678 0.02360279329 0)
(1.71537044 0.02084685019 0)
(1.653322198 0.04126344034 0)
(1.570729111 0.0414122402 0)
(1.489779522 0.03961829794 0)
(1.414563788 0.03567265133 0)
(1.347216905 0.03174157907 0)
(1.287767753 0.02776702225 0)
(1.236223647 0.02382862734 0)
(1.192341346 0.02009755668 0)
(1.155569782 0.01671077883 0)
(1.12515081 0.01373861195 0)
(1.100241787 0.01119531972 0)
(1.080007408 0.00905929366 0)
(1.06367428 0.007290167667 0)
(1.050556867 0.005840362873 0)
(1.040065044 0.004661952221 0)
(1.031701142 0.003710313349 0)
(1.025051695 0.00294578283 0)
(1.019777038 0.002334148898 0)
(1.015600555 0.001846511148 0)
(1.012298521 0.001458823972 0)
(1.009690995 0.001151310285 0)
(1.007633892 0.0009078496873 0)
(1.006012267 0.000715396596 0)
(1.004734694 0.0005634539805 0)
(1.003728632 0.000443614499 0)
(1.002936639 0.0003491704634 0)
(1.002313305 0.0002747865934 0)
(1.001822779 0.0002162299047 0)
(1.001436787 0.000170148465 0)
(1.001133049 0.0001338925806 0)
(1.000894025 0.0001053705753 0)
(1.00070591 8.293280228e-05 0)
(1.000557846 6.527942739e-05 0)
(1.000441296 5.138663234e-05 0)
(1.000349553 4.044840303e-05 0)
(1.000277346 3.183048169e-05 0)
(1.000220539 2.503336887e-05 0)
(1.000175887 1.966371932e-05 0)
(1.000140847 1.54116498e-05 0)
(1.00011343 1.203218894e-05 0)
(1.000092088 9.331277762e-06 0)
(1.000075619 7.154542102e-06 0)
(1.000063098 5.378258688e-06 0)
(1.000053828 3.901857176e-06 0)
(1.00004729 2.642186374e-06 0)
(1.000043123 1.529053478e-06 0)
(1.000041095 5.004995761e-07 0)
(1.001525381 -0.004773839817 0)
(1.004662759 -0.005043589004 0)
(1.008064498 -0.005596881567 0)
(1.011922032 -0.00646172964 0)
(1.016450113 -0.007681170901 0)
(1.02189715 -0.009314370108 0)
(1.028556467 -0.01143784424 0)
(1.036778536 -0.01414651011 0)
(1.046984079 -0.01755403665 0)
(1.059677502 -0.02179161424 0)
(1.075459511 -0.02700365456 0)
(1.095036594 -0.03333799553 0)
(1.119222962 -0.04092686135 0)
(1.14892708 -0.04985344526 0)
(1.185109675 -0.06009927923 0)
(1.228695353 -0.07147571127 0)
(1.280426781 -0.0835732644 0)
(1.3406922 -0.09582923898 0)
(1.409498812 -0.1079223723 0)
(1.487681164 -0.1209579777 0)
(1.573808409 -0.1273464863 0)
(1.665107005 -0.1294183957 0)
(1.730270784 -0.06004918876 0)
(1.780016944 -0.07865990767 0)
(1.806191088 0.005542807382 0)
(1.806193431 -0.005550599362 0)
(1.78002432 0.07865106141 0)
(1.730284286 0.06003799977 0)
(1.66512878 0.1294032427 0)
(1.573841364 0.1273268224 0)
(1.487728333 0.1209333975 0)
(1.409563968 0.1078910307 0)
(1.340780007 0.09579017513 0)
(1.280542746 0.08352452583 0)
(1.228846448 0.07141476726 0)
(1.18530472 0.06002287075 0)
(1.149177271 0.0497573763 0)
(1.119542548 0.04080576282 0)
(1.095443725 0.03318502305 0)
(1.075977298 0.02681009667 0)
(1.060335376 0.0215463903 0)
(1.047819505 0.01724305778 0)
(1.037839191 0.01375186653 0)
(1.029903015 0.01093677658 0)
(1.023606759 0.008677967655 0)
(1.018620914 0.006872727536 0)
(1.014678774 0.005434673898 0)
(1.011565709 0.004292174733 0)
(1.009109791 0.003386467975 0)
(1.007173822 0.002669757019 0)
(1.005648656 0.002103426722 0)
(1.004447682 0.001656449339 0)
(1.003502312 0.001304003169 0)
(1.002758319 0.001026302826 0)
(1.002172893 0.0008076233248 0)
(1.001712267 0.0006354960567 0)
(1.001349837 0.0005000533873 0)
(1.001064652 0.0003934983405 0)
(1.000840227 0.0003096775665 0)
(1.000663593 0.0002437395573 0)
(1.000524555 0.0001918624269 0)
(1.000415098 0.0001510365777 0)
(1.000328924 0.0001188929531 0)
(1.00026109 9.356727455e-05 0)
(1.000207712 7.359188849e-05 0)
(1.000165745 5.781096862e-05 0)
(1.000132804 4.531359811e-05 0)
(1.000107024 3.53801166e-05 0)
(1.00008695 2.744044512e-05 0)
(1.000071456 2.104108843e-05 0)
(1.000059674 1.581828743e-05 0)
(1.000050948 1.147663477e-05 0)
(1.000044793 7.772060243e-06 0)
(1.00004087 4.497798124e-06 0)
(1.000038961 1.472162087e-06 0)
(1.001337447 -0.007639530249 0)
(1.004089435 -0.008073153969 0)
(1.007076952 -0.008962961461 0)
(1.010471352 -0.01035483643 0)
(1.014466145 -0.01231946061 0)
(1.01928714 -0.014954381 0)
(1.025203862 -0.0183864472 0)
(1.032542542 -0.02277421741 0)
(1.041700949 -0.02830964384 0)
(1.053165207 -0.03521784533 0)
(1.067528538 -0.04375290866 0)
(1.085511323 -0.05418617045 0)
(1.107980535 -0.06678092115 0)
(1.135962851 -0.08174350635 0)
(1.170636294 -0.0991361113 0)
(1.213265912 -0.1187403909 0)
(1.265038089 -0.1399156934 0)
(1.326826218 -0.1616624111 0)
(1.398833726 -0.1830441342 0)
(1.482663232 -0.208010086 0)
(1.582391555 -0.2263358025 0)
(1.685076634 -0.2246067372 0)
(1.759269156 -0.1043565042 0)
(1.823406347 -0.1483498267 0)
(1.855579103 0.01682747887 8.772245671e-35)
(1.855580668 -0.01683918307 9.096451368e-35)
(1.823411467 0.1483362953 0)
(1.759278768 0.1043393717 0)
(1.685092999 0.2245824867 0)
(1.582417908 0.2263040488 0)
(1.482702355 0.2079705833 0)
(1.398889093 0.1829934501 0)
(1.32690194 0.161599641 0)
(1.265138804 0.1398374578 0)
(1.213397707 0.1186426671 0)
(1.170806837 0.09901370157 0)
(1.136181883 0.08158970039 0)
(1.108260467 0.06658713337 0)
(1.085867976 0.05394145875 0)
(1.067982069 0.04344334714 0)
(1.053741294 0.0348257198 0)
(1.042432289 0.02781242886 0)
(1.033470765 0.02214327518 0)
(1.026381957 0.01758537728 0)
(1.020782543 0.01393693172 0)
(1.016364668 0.01102688854 0)
(1.01288217 0.008712574949 0)
(1.010138937 0.006876427501 0)
(1.007979198 0.005422488191 0)
(1.006279518 0.004273021722 0)
(1.004942275 0.003365433326 0)
(1.00389038 0.002649564545 0)
(1.003063031 0.002085380268 0)
(1.002412316 0.001641027222 0)
(1.001900512 0.001291227234 0)
(1.001497931 0.001015961654 0)
(1.001181224 0.0007994041252 0)
(1.000932031 0.0006290593321 0)
(1.000735921 0.0004950724806 0)
(1.000581552 0.0003896782155 0)
(1.000460014 0.0003067614015 0)
(1.000364306 0.0002415084643 0)
(1.00028893 0.0001901315855 0)
(1.00022957 0.0001496502237 0)
(1.000182839 0.0001177187055 0)
(1.000146078 9.248996609e-05 0)
(1.000117208 7.250789472e-05 0)
(1.000094599 5.66227839e-05 0)
(1.000076984 4.392375572e-05 0)
(1.00006338 3.368606636e-05 0)
(1.000053029 2.532845718e-05 0)
(1.000045359 1.837891028e-05 0)
(1.000039947 1.244767774e-05 0)
(1.000036496 7.204189083e-06 0)
(1.000034816 2.358059683e-06 0)
(1.001067938 -0.01004732064 0)
(1.003266923 -0.01062128779 0)
(1.005659029 -0.01179982994 0)
(1.008385875 -0.01364533513 0)
(1.011609173 -0.01625427136 0)
(1.015520382 -0.01976050584 0)
(1.020352024 -0.02433943446 0)
(1.026391273 -0.03021253779 0)
(1.033996477 -0.03765169749 0)
(1.043617467 -0.04698212588 0)
(1.055820848 -0.0585819059 0)
(1.071321951 -0.07287454626 0)
(1.09102586 -0.09030783918 0)
(1.11607961 -0.1113056905 0)
(1.147929676 -0.1361639594 0)
(1.188333755 -0.1648292731 0)
(1.239159157 -0.1965269881 0)
(1.302143797 -0.2299486583 0)
(1.381113927 -0.2658865018 0)
(1.476779367 -0.3048421596 0)
(1.600771766 -0.3534481725 0)
(1.703365892 -0.3029788506 0)
(1.797350478 -0.1943296761 0)
(1.896821052 -0.2221480277 0)
(1.940901809 0.0142959129 -1.376646337e-36)
(1.940902147 -0.01430952229 1.377956873e-36)
(1.896822794 0.2221314383 0)
(1.797354324 0.1943089987 0)
(1.703374203 0.3029469148 0)
(1.600788184 0.3534059922 0)
(1.476806777 0.3047892966 0)
(1.381155535 0.2658187057 0)
(1.302202389 0.2298656249 0)
(1.239238181 0.1964235451 0)
(1.188438105 0.1647002934 0)
(1.148065379 0.1360026352 0)
(1.116254334 0.1111032014 0)
(1.091249402 0.09005290638 0)
(1.071606815 0.07255279926 0)
(1.056182982 0.05817505613 0)
(1.044077205 0.04646690942 0)
(1.034579727 0.03699852822 0)
(1.027131043 0.02938379432 0)
(1.021290354 0.02328728472 0)
(1.016710822 0.01842414909 0)
(1.013119931 0.01455644604 0)
(1.010303842 0.01148790354 0)
(1.008094917 0.009058208671 0)
(1.006361817 0.007137438429 0)
(1.005001675 0.005620953662 0)
(1.003933925 0.004424899411 0)
(1.003095462 0.003482346238 0)
(1.00243685 0.002740046262 0)
(1.001919348 0.00215574636 0)
(1.001512591 0.001695988374 0)
(1.001192771 0.00133432298 0)
(1.000941219 0.001049869725 0)
(1.000743291 0.0008261623082 0)
(1.000587496 0.0006502267801 0)
(1.000464818 0.0005118473056 0)
(1.000368183 0.000402983926 0)
(1.000292038 0.000317311437 0)
(1.000232023 0.0002498541964 0)
(1.000184719 0.0001966981814 0)
(1.000147442 0.0001547639166 0)
(1.000118086 0.0001216266889 0)
(1.000095005 9.537533175e-05 0)
(1.000076908 7.450109203e-05 0)
(1.000062791 5.78087129e-05 0)
(1.000051875 4.434685028e-05 0)
(1.000043559 3.335259717e-05 0)
(1.000037391 2.420670158e-05 0)
(1.000033035 1.639763536e-05 0)
(1.000030255 9.4915805e-06 0)
(1.000028902 3.107037954e-06 0)
(1.000731432 -0.01184849034 0)
(1.002239382 -0.01253075996 0)
(1.003885698 -0.01393281803 0)
(1.005773244 -0.01613135336 0)
(1.008021733 -0.01924551182 0)
(1.010776361 -0.02344176812 0)
(1.014218528 -0.02894025486 0)
(1.018579447 -0.03602228614 0)
(1.024157695 -0.0450385837 0)
(1.031342024 -0.05641736449 0)
(1.040641337 -0.07067086353 0)
(1.052724818 -0.08839775855 0)
(1.068477504 -0.110276678 0)
(1.089082314 -0.1370410705 0)
(1.116154787 -0.1694100407 0)
(1.151948147 -0.2078568275 0)
(1.199116074 -0.2515907561 0)
(1.256623244 -0.2954971928 0)
(1.329195926 -0.3520323214 0)
(1.398897564 -0.384228785 0)
(1.50813696 -0.5075265742 0)
(1.767479931 -0.2880779818 0)
(1.959096677 -0.3882967149 4.451755242e-21)
(1.937860679 -0.3783919017 3.435811441e-21)
(2.139854743 -0.03489456241 -8.325098686e-23)
(2.13985353 0.0348811653 -1.767620335e-21)
(1.937855995 0.3783727358 9.250714307e-25)
(1.959090146 0.3882756721 -4.451861387e-21)
(1.767476784 0.288038564 0)
(1.508139886 0.5074765414 0)
(1.398910167 0.3841630846 0)
(1.329221137 0.3519505294 0)
(1.256660903 0.295398695 0)
(1.199168293 0.2514677493 0)
(1.152018575 0.2077038335 0)
(1.116247452 0.1692190882 0)
(1.089202328 0.1368017732 0)
(1.068631417 0.1099757532 0)
(1.052921026 0.08801828373 0)
(1.040890579 0.0701913053 0)
(1.031658021 0.05581033362 0)
(1.024557955 0.04426924551 0)
(1.0190863 0.03504633709 0)
(1.014860447 0.02770134961 0)
(1.011589663 0.02186825144 0)
(1.009052753 0.01724627189 0)
(1.007081141 0.01359056662 0)
(1.005546056 0.01070329973 0)
(1.004348871 0.008425562577 0)
(1.003413826 0.006630311769 0)
(1.002682561 0.005216355593 0)
(1.002109994 0.004103330333 0)
(1.001661214 0.003227561743 0)
(1.001309124 0.0025386927 0)
(1.00103265 0.001996956478 0)
(1.000815375 0.001570986354 0)
(1.000644491 0.0012360645 0)
(1.000509993 0.0009727268632 0)
(1.000404056 0.0007656555271 0)
(1.000320559 0.0006028001334 0)
(1.000254703 0.000474684332 0)
(1.00020273 0.0003738572613 0)
(1.000161693 0.000294460472 0)
(1.000129282 0.0002318874447 0)
(1.000103682 0.0001825146023 0)
(1.000083474 0.0001434894394 0)
(1.000067543 0.0001125641071 0)
(1.000055019 8.796379649e-05 0)
(1.000045222 6.828303853e-05 0)
(1.000037627 5.240298424e-05 0)
(1.000031827 3.942603106e-05 0)
(1.000027515 2.86239565e-05 0)
(1.000024463 1.939496755e-05 0)
(1.000022514 1.122864321e-05 0)
(1.000021564 3.676034102e-06 0)
(1.000346793 -0.0129277933 0)
(1.00106407 -0.01367890963 0)
(1.001854569 -0.01522391974 0)
(1.002774517 -0.01765055379 0)
(1.003892237 -0.021095886 0)
(1.005295062 -0.02575300444 0)
(1.007098629 -0.0318799979 0)
(1.009459659 -0.03981121483 0)
(1.012593619 -0.04997057432 0)
(1.016798987 -0.06288646062 0)
(1.022490338 -0.07920742225 0)
(1.030243126 -0.09971730592 0)
(1.040853202 -0.1253462552 0)
(1.055408687 -0.1571669489 0)
(1.07536218 -0.1963571539 0)
(1.102738979 -0.244143044 0)
(1.141617425 -0.3014369582 0)
(1.19567165 -0.357323948 0)
(1.295652227 -0.4629313782 0)
(1.489284509 -0.3977183578 8.262597463e-21)
(1.579459535 -0.6050941853 5.634027738e-21)
(1.816933454 -0.4930941714 -6.360407124e-21)
(0 0 0)
(0 0 0)
(0 0 0)
(0 0 0)
(0 0 0)
(0 0 0)
(1.816919728 0.4930583924 1.469039219e-20)
(1.579442878 0.6050389482 4.514791738e-21)
(1.489285365 0.397635244 1.297538075e-20)
(1.29565669 0.4628396039 0)
(1.195683643 0.3572154348 0)
(1.141638326 0.3013004736 0)
(1.102770847 0.243974324 0)
(1.075406281 0.1961474229 0)
(1.055467027 0.1569048006 0)
(1.0409286 0.1250171731 0)
(1.030339321 0.09930283374 0)
(1.022612185 0.07868409556 0)
(1.016952734 0.06222444445 0)
(1.012787274 0.04913192623 0)
(1.009703468 0.03874767289 0)
(1.007405695 0.03053016378 0)
(1.005682152 0.02403875856 0)
(1.004380836 0.01891782894 0)
(1.003392204 0.01488221348 0)
(1.002636838 0.0117043947 0)
(1.002056734 0.009203533824 0)
(1.001609198 0.007236304529 0)
(1.001262547 0.005689356256 0)
(1.000993094 0.004473191922 0)
(1.000782996 0.003517236681 0)
(1.000618729 0.002765891025 0)
(1.000489981 0.002175385477 0)
(1.000388848 0.001711283508 0)
(1.000309246 0.001346503727 0)
(1.000246474 0.001059755924 0)
(1.000196885 0.0008343069907 0)
(1.000157646 0.0006570079415 0)
(1.000126549 0.0005175269224 0)
(1.000101868 0.0004077452715 0)
(1.000082254 0.0003212832642 0)
(1.000066652 0.000253126694 0)
(1.000054233 0.000199331968 0)
(1.000044347 0.000156795694 0)
(1.000036487 0.0001230726838 0)
(1.000030253 9.623209045e-05 0)
(1.000025334 7.474507044e-05 0)
(1.000021487 5.739458958e-05 0)
(1.000018527 4.320415338e-05 0)
(1.00001631 3.138134586e-05 0)
(1.000014732 2.127119471e-05 0)
(1.000013719 1.231800163e-05 0)
(1.000013224 4.033161177e-06 0)
(0.9999365188 -0.01321138794 0)
(0.9998094627 -0.01398612668 0)
(0.999682993 -0.01558139592 0)
(0.999560632 -0.01809146229 0)
(0.9994514886 -0.02166456268 0)
(0.9993744701 -0.0265114596 0)
(0.9993649555 -0.03291738911 0)
(0.9994853724 -0.04125775272 0)
(0.9998416941 -0.05201780772 0)
(1.000608534 -0.06581640772 0)
(1.002066398 -0.08343383925 0)
(1.004657519 -0.1058451416 0)
(1.009079306 -0.1342653149 0)
(1.016474645 -0.1702206639 0)
(1.028830249 -0.2156448449 0)
(1.049489471 -0.2729394099 0)
(1.084379384 -0.3464827191 0)
(1.130678819 -0.4127322013 0)
(1.214049505 -0.5482734398 2.954347077e-21)
(1.269219911 -0.6661475965 0)
(1.467657329 -0.7701673249 4.117153851e-21)
(0 0 0)
(0 0 0)
(0 0 0)
(0 0 0)
(0 0 0)
(0 0 0)
(0 0 0)
(0 0 0)
(1.467624858 0.7701018385 -4.11757838e-21)
(1.269192683 0.6660686056 -5.047229091e-21)
(1.214034487 0.5481660212 7.039146589e-21)
(1.130664656 0.4126182387 0)
(1.084369053 0.3463389298 0)
(1.049481932 0.2727642222 0)
(1.028823769 0.2154282783 0)
(1.016468345 0.1699509172 0)
(1.009072241 0.1339275217 0)
(1.004648578 0.1054204404 0)
(1.002054252 0.08289827202 0)
(1.000591565 0.06513952802 0)
(0.9998179009 0.05116090609 0)
(0.9994522569 0.04017159207 0)
(0.9993193895 0.03153931637 0)
(0.9993125458 0.02476172242 0)
(0.9993683575 0.01944161515 0)
(0.9994503412 0.0152659819 0)
(0.999538344 0.01198865743 0)
(0.9996219338 0.009416281398 0)
(0.9996963281 0.007397072316 0)
(0.9997599228 0.005811927161 0)
(0.999812814 0.004567399796 0)
(0.9998559304 0.003590177131 0)
(0.9998905376 0.002822740012 0)
(0.9999179648 0.002219958756 0)
(0.9999394655 0.001746422001 0)
(0.9999561539 0.001374341667 0)
(0.9999689844 0.001081910122 0)
(0.9999787543 0.0008520112404 0)
(0.9999861186 0.0006712099838 0)
(0.9999916078 0.0005289587949 0)
(0.9999956476 0.0004169754942 0)
(0.9999985757 0.0003287552808 0)
(1.000000659 0.0002591872466 0)
(1.000002107 0.0002042532541 0)
(1.000003084 0.0001607917818 0)
(1.000003716 0.0001263120114 0)
(1.000004101 9.884737757e-05 0)
(1.000004315 7.684021227e-05 0)
(1.000004414 5.905050348e-05 0)
(1.000004442 4.448359649e-05 0)
(1.000004432 3.233164472e-05 0)
(1.000004405 2.192672921e-05 0)
(1.000004379 1.270211744e-05 0)
(1.000004364 4.159619629e-06 0)
(0.999525765 -0.012673134 0)
(0.9985523516 -0.01342281065 0)
(0.9975034079 -0.0149681232 0)
(0.9963263888 -0.01740405548 0)
(0.9949660203 -0.0208809881 0)
(0.9933645599 -0.02561487679 0)
(0.9914640282 -0.03190201567 0)
(0.9892120624 -0.0401394456 0)
(0.9865741631 -0.05085225562 0)
(0.9835565075 -0.06472889367 0)
(0.9802439324 -0.08266478712 0)
(0.9768526857 -0.1058132678 0)
(0.9737780867 -0.1356457241 0)
(0.9715934584 -0.1740561758 0)
(0.971125645 -0.2237090113 0)
(0.974880468 -0.2893137024 0)
(0.9895894991 -0.3797569697 0)
(1.022995371 -0.4592429626 0)
(1.026520481 -0.667755587 -5.322625753e-21)
(0 0 0)
(0 0 0)
(0 0 0)
(0 0 0)
(0 0 0)
(0 0 0)
(0 0 0)
(0 0 0)
(0 0 0)
(0 0 0)
(0 0 0)
(0 0 0)
(1.026480947 0.6676477158 -5.323110101e-21)
(1.022953842 0.4591280647 0)
(0.9895462114 0.3796120407 0)
(0.9748327678 0.2891412761 0)
(0.9710688918 0.2234976863 0)
(0.9715233687 0.173794357 0)
(0.9736897212 0.1353190629 0)
(0.9767400327 0.1054036242 0)
(0.9800995207 0.08214916088 0)
(0.9833709432 0.06407809463 0)
(0.9863355541 0.05002920189 0)
(0.9889053043 0.03909698609 0)
(0.9910699135 0.03058014878 0)
(0.9928586662 0.02393719902 0)
(0.9943173201 0.01875015855 0)
(0.9954955154 0.01469599931 0)
(0.9964405021 0.01152461744 0)
(0.9971944056 0.009041990681 0)
(0.9977933769 0.007097324081 0)
(0.9982676943 0.005573225326 0)
(0.9986423024 0.004378174919 0)
(0.9989375121 0.003440737518 0)
(0.9991697205 0.002705097273 0)
(0.9993520797 0.002127605334 0)
(0.9994950867 0.001674103129 0)
(0.9996070874 0.001317842774 0)
(0.9996946967 0.001037868757 0)
(0.9997631451 0.000817756067 0)
(0.9998165596 0.0006446256836 0)
(0.9998581912 0.000508375081 0)
(0.9998905972 0.0004010770032 0)
(0.9999157865 0.0003165082267 0)
(0.9999353355 0.0002497803882 0)
(0.9999504792 0.000197051606 0)
(0.999962184 0.0001552993105 0)
(0.9999712048 0.0001221420642 0)
(0.9999781299 9.569975498e-05 0)
(0.9999834159 7.448274327e-05 0)
(0.9999874156 5.730484916e-05 0)
(0.999990399 4.321447069e-05 0)
(0.9999925701 3.143827535e-05 0)
(0.9999940784 2.133663068e-05 0)
(0.9999950286 1.236671775e-05 0)
(0.9999954875 4.050896812e-06 0)
(0.9991409553 -0.01133852099 0)
(0.9973736886 -0.01201400283 0)
(0.9954564306 -0.01340776326 0)
(0.9932809578 -0.01560857105 0)
(0.9907266225 -0.01875785406 0)
(0.9876553738 -0.02306062897 0)
(0.9839072191 -0.02880192838 0)
(0.9792972413 -0.03637072734 0)
(0.973616937 -0.04629445209 0)
(0.9666465327 -0.05928864924 0)
(0.9581940023 -0.07632816089 0)
(0.9481961334 -0.09874738933 0)
(0.9369488365 -0.1283753848 0)
(0.9255186327 -0.1676980682 0)
(0.9159135147 -0.2199841146 0)
(0.9083451483 -0.2892212421 0)
(0.8879668123 -0.3741744558 0)
(0.8079026903 -0.5398467094 -8.967938013e-21)
(0.9151734339 -0.7199062361 -4.892196922e-21)
(0 0 0)
(0 0 0)
(0 0 0)
(0 0 0)
(0 0 0)
(0 0 0)
(0 0 0)
(0 0 0)
(0 0 0)
(0 0 0)
(0 0 0)
(0 0 0)
(0.915118839 0.7198034734 3.69943885e-21)
(0.8078590753 0.5397291601 2.98934855e-21)
(0.8878995551 0.3740378698 0)
(0.9082620828 0.2890607139 0)
(0.915811028 0.2197893943 0)
(0.9253901357 0.1674590309 0)
(0.9367856738 0.1280789366 0)
(0.9479877575 0.09837710289 0)
(0.9579273007 0.07586335201 0)
(0.9663049609 0.05870317174 0)
(0.9731794785 0.04555515713 0)
(0.9787371306 0.03543550124 0)
(0.9831903448 0.02761719231 0)
(0.9867382635 0.02155814741 0)
(0.9895538919 0.01685065353 0)
(0.9917820825 0.01318571214 0)
(0.9935416633 0.01032763243 0)
(0.9949289064 0.008095687979 0)
(0.9960211713 0.006350699393 0)
(0.9968802658 0.004985104625 0)
(0.9975553674 0.003915536334 0)
(0.9980854817 0.003077226784 0)
(0.9985014726 0.002419760414 0)
(0.9988277162 0.001903830843 0)
(0.9990834356 0.001498752484 0)
(0.9992837723 0.001180543641 0)
(0.9994406415 0.0009304448926 0)
(0.9995634114 0.0007337704487 0)
(0.9996594429 0.0005790158879 0)
(0.999734516 0.0004571635045 0)
(0.9997931666 0.0003611409211 0)
(0.9998389525 0.0002853980342 0)
(0.9998746625 0.0002255763767 0)
(0.9999024807 0.0001782507608 0)
(0.9999241163 0.0001407264005 0)
(0.9999409048 0.0001108798763 0)
(0.9999538875 8.703428383e-05 0)
(0.9999638737 6.786066148e-05 0)
(0.9999714891 5.23002373e-05 0)
(0.9999772132 3.950289586e-05 0)
(0.9999814079 2.877765345e-05 0)
(0.99998434 1.955250609e-05 0)
(0.9999861962 1.134148281e-05 0)
(0.9999870955 3.716596739e-06 0)
(0.9988079931 -0.00928541837 0)
(0.9963531046 -0.009840728064 0)
(0.9936813864 -0.01098747284 0)
(0.9906340098 -0.01280078928 0)
(0.9870298145 -0.01540094668 0)
(0.982654452 -0.01896347849 0)
(0.977247385 -0.02373470192 0)
(0.9704857387 -0.03005495811 0)
(0.9619635343 -0.03839351011 0)
(0.9511638639 -0.04940174645 0)
(0.9374190509 -0.06399552287 0)
(0.9198464229 -0.08348195992 0)
(0.8972296062 -0.1097428366 0)
(0.8678158241 -0.1454457865 0)
(0.8292925986 -0.1940599244 0)
(0.7800583972 -0.2582860619 0)
(0.7124760028 -0.3170609448 0)
(0.666017747 -0.4527928752 1.265050352e-21)
(0 0 0)
(0 0 0)
(0 0 0)
(0 0 0)
(0 0 0)
(0 0 0)
(0 0 0)
(0 0 0)
(0 0 0)
(0 0 0)
(0 0 0)
(0 0 0)
(0 0 0)
(0 0 0)
(0.665946128 0.4526919616 -2.155950598e-21)
(0.7123938481 0.3169432172 0)
(0.7799517135 0.258147053 0)
(0.8291554805 0.1938935903 0)
(0.8676394435 0.1452437011 0)
(0.8970032776 0.1094941347 0)
(0.919556351 0.08317299248 0)
(0.9370476029 0.06360923658 0)
(0.9506885169 0.04891669433 0)
(0.9613555224 0.03778257006 0)
(0.9697083334 0.02928371472 0)
(0.9762537056 0.02275939381 0)
(0.9813846737 0.01772838025 0)
(0.9854076092 0.01383501818 0)
(0.988562008 0.01081337547 0)
(0.9910353921 0.008462771225 0)
(0.9929747196 0.006630652027 0)
(0.9944952142 0.005200363155 0)
(0.9956872385 0.004082270891 0)
(0.9966216658 0.003207231648 0)
(0.9973540857 0.002521734765 0)
(0.9979280999 0.00198425727 0)
(0.9983779069 0.001562507319 0)
(0.9987303292 0.001231326194 0)
(0.999006403 0.0009710830058 0)
(0.9992226254 0.0007664408126 0)
(0.9993919333 0.0006054046332 0)
(0.9995244704 0.0004785846043 0)
(0.9996281891 0.0003786241922 0)
(0.9997093234 0.0002997556009 0)
(0.9997727583 0.0002374532353 0)
(0.9998223211 0.0001881632058 0)
(0.9998610081 0.0001490921547 0)
(0.9998911639 0.0001180418196 0)
(0.9999146204 9.32792813e-05 0)
(0.9999328062 7.343520731e-05 0)
(0.999946832 5.742366044e-05 0)
(0.9999575567 4.437874952e-05 0)
(0.9999656388 3.360439341e-05 0)
(0.999971576 2.453413391e-05 0)
(0.9999757345 1.669842047e-05 0)
(0.9999783715 9.69776267e-06 0)
(0.9999796504 3.179944218e-06 0)
(0.9985501702 -0.006640939833 0)
(0.9955624072 -0.00703711246 0)
(0.9923046585 -0.007855692026 0)
(0.9885775639 -0.009151324456 0)
(0.9841510608 -0.01101168243 0)
(0.9787485395 -0.01356508101 0)
(0.9720266893 -0.01699205329 0)
(0.9635483831 -0.02154241435 0)
(0.9527440902 -0.02756023 0)
(0.9388540369 -0.03552061317 0)
(0.9208388977 -0.04608494397 0)
(0.8972453668 -0.06018521381 0)
(0.8660257494 -0.07914931222 0)
(0.8243244882 -0.1048531526 0)
(0.7681212914 -0.1398314094 0)
(0.6934247681 -0.1884599215 0)
(0.596046824 -0.204234683 -4.263514794e-21)
(0.5541228202 -0.3560278229 7.645482457e-21)
(0 0 0)
(0 0 0)
(0 0 0)
(0 0 0)
(0 0 0)
(0 0 0)
(0 0 0)
(0 0 0)
(0 0 0)
(0 0 0)
(0 0 0)
(0 0 0)
(0 0 0)
(0 0 0)
(0.5540612988 0.3559347382 -4.685842514e-21)
(0.5959601242 0.2041511383 -3.118926804e-21)
(0.6932987409 0.1883503514 0)
(0.7679573842 0.1397040191 0)
(0.8241115248 0.1047005305 0)
(0.8657507915 0.07896320137 0)
(0.8968921886 0.05995576087 0)
(0.9203864823 0.04579993714 0)
(0.9382753093 0.03516472294 0)
(0.952004349 0.0271141003 0)
(0.962603253 0.02098151773 0)
(0.9708194763 0.01628523378 0)
(0.9772068378 0.01267269236 0)
(0.9821824078 0.009883202026 0)
(0.9860638782 0.007722286525 0)
(0.9890951155 0.006043734128 0)
(0.9914643056 0.004736863 0)
(0.9933172069 0.003717383012 0)
(0.994767023 0.002920768715 0)
(0.995901855 0.00229740531 0)
(0.9967903756 0.001808999606 0)
(0.9974861809 0.001425903174 0)
(0.9980311404 0.001125100091 0)
(0.9984579884 0.0008886837801 0)
(0.9987923327 0.0007026970379 0)
(0.9990542148 0.000556244061 0)
(0.9992593262 0.000440807731 0)
(0.9994199548 0.0003497226329 0)
(0.9995457256 0.000277767189 0)
(0.9996441773 0.000220847036 0)
(0.999721215 0.0001757486259 0)
(0.9997814631 0.0001399472166 0)
(0.9998285414 0.0001114570132 0)
(0.9998652818 8.87138679e-05 0)
(0.9998938971 7.048340447e-05 0)
(0.9999161131 5.578890262e-05 0)
(0.9999332715 4.385451961e-05 0)
(0.9999464104 3.40604836e-05 0)
(0.9999563255 2.590740635e-05 0)
(0.9999636184 1.89878559e-05 0)
(0.9999687321 1.296320695e-05 0)
(0.9999719776 7.544560764e-06 0)
(0.9999735524 2.476600008e-06 0)
(0.9983860413 -0.0035740875 -3.845643146e-34)
(0.995058894 -0.003782739546 -3.832827441e-34)
(0.9914274168 -0.004213949866 -3.818839499e-34)
(0.9872660285 -0.004896695233 -3.802810415e-34)
(0.9823130734 -0.005877474013 0)
(0.9762520583 -0.007224289428 0)
(0.9686878666 -0.009032516992 0)
(0.9591153116 -0.01143303861 0)
(0.9468758737 -0.01460283122 0)
(0.9310951486 -0.01877756278 0)
(0.9105857874 -0.02426496945 0)
(0.8836857349 -0.0314611114 0)
(0.8480007849 -0.04090194257 0)
(0.8002174547 -0.05352644634 0)
(0.7371416378 -0.071759823 0)
(0.6573578682 -0.1018967347 0)
(0.5574895187 -0.1238636305 0)
(0.3830676843 -0.1767705138 -2.225643343e-22)
(0 0 0)
(0 0 0)
(0 0 0)
(0 0 0)
(0 0 0)
(0 0 0)
(0 0 0)
(0 0 0)
(0 0 0)
(0 0 0)
(0 0 0)
(0 0 0)
(0 0 0)
(0 0 0)
(0.3830089045 0.1767083946 -8.211473072e-22)
(0.5573950173 0.123799988 -1.68455374e-21)
(0.6572189152 0.1018244622 0)
(0.7369572267 0.07167855661 -2.838655981e-34)
(0.7999783653 0.05343153858 -3.081404577e-34)
(0.8476932483 0.04078868941 -1.632597811e-34)
(0.8832913231 0.03132406151 -3.345528319e-50)
(0.9100809145 0.02409746753 1.752752085e-34)
(0.9304496885 0.01857133393 0)
(0.946051312 0.01434749544 0)
(0.9580624152 0.01111550537 -1.845161094e-34)
(0.9673437224 0.00863621813 -1.863036242e-34)
(0.9745362877 0.006728201314 0)
(0.9801229837 0.005254864744 0)
(0.9844703943 0.004113514021 0)
(0.9878584952 0.003226748968 0)
(0.9905021571 0.002535983289 0)
(0.9925669469 0.001996654105 0)
(0.9941808637 0.001574700899 0)
(0.9954431338 0.001243973957 0)
(0.9964308505 0.0009843174061 0)
(0.9972040197 0.0007801419075 0)
(0.9978094167 0.0006193544485 0)
(0.9982835466 0.0004925505672 0)
(0.998654926 0.0003924008909 0)
(0.9989458485 0.0003131826751 7.69559889e-34)
(0.9991737529 0.0002504203796 7.697354602e-34)
(0.9993522863 0.0002006087764 0)
(0.999492132 0.0001609989785 0)
(0.9996016551 0.0001294324993 7.70065104e-34)
(0.9996874055 0.0001042122059 7.701311637e-34)
(0.9997545118 8.400189187e-05 0)
(0.9998069883 6.774795133e-05 0)
(0.9998479752 5.461793446e-05 7.702548621e-34)
(0.9998799262 4.395250472e-05 7.702794762e-34)
(0.9999047551 3.52278038e-05 0)
(0.9999239503 2.802564213e-05 0)
(0.999938663 2.201004667e-05 0)
(0.9999497761 1.690854856e-05 0)
(0.9999579572 1.249723439e-05 0)
(0.9999636979 8.588584619e-06 0)
(0.9999673433 5.021370169e-06 0)
(0.9999691128 1.65216429e-06 0)
(0.99832762 -0.000284462402 0)
(0.994879677 -0.0002904992383 0)
(0.9911152069 -0.0003028469363 0)
(0.9867993434 -0.0003220691991 0)
(0.9816593387 -0.0003490472508 0)
(0.9753650033 -0.0003850103108 0)
(0.9675043714 -0.000431547789 0)
(0.9575530076 -0.0004905650235 0)
(0.9448362273 -0.0005641304519 0)
(0.9284870135 -0.00065419469 0)
(0.9074119808 -0.0007623591679 0)
(0.8802927389 -0.0008904080939 0)
(0.8456183647 -0.001042962274 0)
(0.8013404701 -0.001232140578 0)
(0.7419638874 -0.001479276806 0)
(0.6516188087 -0.001878303715 0)
(0.4840346398 0.04489432332 -4.081842636e-22)
(0.3587368448 0.05761055395 -6.034237152e-22)
(0 0 0)
(0 0 0)
(0 0 0)
(0 0 0)
(0 0 0)
(0 0 0)
(0 0 0)
(0 0 0)
(0 0 0)
(0 0 0)
(0 0 0)
(0 0 0)
(0 0 0)
(0 0 0)
(0.3586819911 -0.05763043973 -7.250148565e-23)
(0.483955587 -0.04491357021 4.081167148e-22)
(0.6514733337 0.001847072695 0)
(0.7417731915 0.00144773867 0)
(0.8010927078 0.001199360937 0)
(0.8452986287 0.001008142329 0)
(0.8798822362 0.0008527446979 0)
(0.90688653 0.0007211053072 0)
(0.9278155381 0.0006086162889 0)
(0.9439789046 0.0005134581013 0)
(0.9564588943 0.0004339586765 0)
(0.9661083524 0.0003680687033 0)
(0.9735838755 0.0003135942328 0)
(0.9793867871 0.0002684746551 0)
(0.9838994908 0.0002309297647 0)
(0.9874143246 0.0001994955285 0)
(0.9901555143 0.0001730001633 0)
(0.992295639 0.0001505179505 0)
(0.9939679526 0.0001313203999 0)
(0.9952756339 0.000114833123 0)
(0.9962987639 0.0001006007157 0)
(0.99709962 8.825921287e-05 0)
(0.9977267126 7.751505261e-05 0)
(0.9982178783 6.812910471e-05 0)
(0.9986026605 5.990462029e-05 0)
(0.9989041463 5.267814824e-05 0)
(0.9991403901 4.631257372e-05 0)
(0.9993255177 4.069189965e-05 0)
(0.9994705857 3.571720522e-05 0)
(0.9995842503 3.130344832e-05 0)
(0.9996732894 2.737699252e-05 0)
(0.9997430097 2.387365624e-05 0)
(0.9997975651 2.073718392e-05 0)
(0.9998402054 1.791790892e-05 0)
(0.9998734701 1.537163846e-05 0)
(0.9998993403 1.305888341e-05 0)
(0.9999193564 1.094404255e-05 0)
(0.9999347106 8.994747636e-06 0)
(0.9999463172 7.181327464e-06 0)
(0.9999548676 5.476255126e-06 0)
(0.999960871 3.853739083e-06 0)
(0.999964685 2.289277974e-06 0)
(0.9999665369 7.592828887e-07 0)
(0.9983791969 0.003012013944 3.845616782e-34)
(0.995038004 0.003208949447 3.832746975e-34)