/*--------------------------------*- C++ -*----------------------------------*\
| =========                 |                                                 |
| \\      /  F ield         | OpenFOAM Extend Project: Open source CFD        |
|  \\    /   O peration     | Version:  1.6-ext                               |
|   \\  /    A nd           | Web:      www.extend-project.de                 |
|    \\/     M anipulation  |                                                 |
\*---------------------------------------------------------------------------*/
FoamFile
{
    version     2.0;
    format      ascii;
    class       volScalarField;
    location    "0";
    object      epsilon;
}
// * * * * * * * * * * * * * * * * * * * * * * * * * * * * * * * * * * * * * //

dimensions      [0 2 -3 0 0 0 0];

internalField   uniform 0.0002;

boundaryField
{
    oversetFaces
    {
        type            overset;
        coupledFringe   yes;
        setHoleCellValue yes;
        holeCellValue   1e-10;
        value           nonuniform 0();
    }
    inlet
    {
        type            fixedValue;
        value           uniform 0.0002;
    }
    leftOut
    {
        type            zeroGradient;
    }
    inletWalls
    {
        type            epsilonWallFunction;
        refValue        uniform 0;
        value           uniform 0.0002;
        Cmu             0.09;
        kappa           0.41;
        E               9.8;
    }
    outlet
    {
        type            epsilonWallFunction;
        refValue        uniform 0;
        value           uniform 0.0002;
        Cmu             0.09;
        kappa           0.41;
        E               9.8;
    }
    outletWalls
    {
        type            epsilonWallFunction;
        refValue        uniform 0;
        value           uniform 0.0002;
        Cmu             0.09;
        kappa           0.41;
        E               9.8;
    }
    frontAndBack
    {
        type            empty;
    }
}


// ************************************************************************* //
