/*--------------------------------*- C++ -*----------------------------------*\
| =========                 |                                                 |
| \\      /  F ield         | OpenFOAM Extend Project: Open source CFD        |
|  \\    /   O peration     | Version:  1.6-ext                               |
|   \\  /    A nd           | Web:      www.extend-project.de                 |
|    \\/     M anipulation  |                                                 |
\*---------------------------------------------------------------------------*/
FoamFile
{
    version     2.0;
    format      ascii;
    class       surfaceScalarField;
    location    "0";
    object      phi;
}
// * * * * * * * * * * * * * * * * * * * * * * * * * * * * * * * * * * * * * //

dimensions      [0 3 -1 0 0 0 0];

internalField   nonuniform List<scalar> 
3290
(
7.999760991e-06
2.390090839e-10
7.999518602e-06
2.423888124e-10
7.999271374e-06
2.472285173e-10
7.999022248e-06
2.491255047e-10
7.998782314e-06
2.39933789e-10
7.998576809e-06
2.055051235e-10
7.998454925e-06
1.218846038e-10
7.998505905e-06
-5.0980466e-11
7.998885537e-06
-3.796321368e-10
7.999859945e-06
-9.744077532e-10
8.00187866e-06
-2.01871545e-09
8.005698377e-06
-3.819717082e-09
8.012597203e-06
-6.898825864e-09
8.024756761e-06
-1.215955771e-08
8.045969243e-06
-2.121248214e-08
8.083001543e-06
-3.70322994e-08
8.148340689e-06
-6.533914603e-08
8.265926579e-06
-1.175858907e-07
8.483419632e-06
-2.174930528e-07
0
7.999766999e-06
4.720097614e-10
7.999527206e-06
4.821821108e-10
7.999274746e-06
4.996885316e-10
7.999005907e-06
5.179642582e-10
7.998721108e-06
5.247332664e-10
7.99842815e-06
4.984624316e-10
7.998147609e-06
4.024261857e-10
7.997921635e-06
1.749930249e-10
7.997828158e-06
-2.86155037e-10
7.998003398e-06
-1.149647364e-09
7.99867688e-06
-2.692197238e-09
8.000224406e-06
-5.367243678e-09
8.003244791e-06
-9.919210719e-09
8.008662673e-06
-1.757743974e-08
8.017845124e-06
-3.039493256e-08
8.03267826e-06
-5.186543549e-08
8.055457587e-06
-8.811847326e-08
8.088313847e-06
-1.504421506e-07
8.132062231e-06
-2.612414372e-07
0
7.999785083e-06
6.86926262e-10
7.999558329e-06
7.089370608e-10
7.999307236e-06
7.507808912e-10
7.999017941e-06
8.072594008e-10
7.998674404e-06
8.682702432e-10
7.998257419e-06
9.154471371e-10
7.997743283e-06
9.165622832e-10
7.997101817e-06
8.164596736e-10
7.996293061e-06
5.226007561e-10
7.995261087e-06
-1.176735561e-10
7.993921242e-06
-1.352351799e-09
7.99213202e-06
-3.578022537e-09
7.989630162e-06
-7.417352061e-09
7.985876019e-06
-1.382329723e-08
7.979675341e-06
-2.419425388e-08
7.968228415e-06
-4.041850968e-08
7.944659938e-06
-6.454999687e-08
7.891337337e-06
-9.711954933e-08
7.760912763e-06
-1.308168628e-07
0
7.999824214e-06
8.627124539e-10
7.999632718e-06
9.004332879e-10
7.999407642e-06
9.758560442e-10
7.999126405e-06
1.088497063e-09
7.998758274e-06
1.236400905e-09
7.998259402e-06
1.414319395e-09
7.997565323e-06
1.610641058e-09
7.996579401e-06
1.80238198e-09
7.995154795e-06
1.94720614e-09
7.993066103e-06
1.971018349e-09
7.989964494e-06
1.749258078e-09
7.985306546e-06
1.079925335e-09
7.978241815e-06
-3.526211518e-10
7.967438763e-06
-3.020245403e-09
7.950832219e-06
-7.587710041e-09
7.925327993e-06
-1.491428361e-08
7.886758512e-06
-2.598051554e-08
7.831431002e-06
-4.179203962e-08
7.764567768e-06
-6.395362887e-08
0
7.999891273e-06
9.714393853e-10
7.999766802e-06
1.024903876e-09
7.999607893e-06
1.134765397e-09
7.999389345e-06
1.307045263e-09
7.999074574e-06
1.551172194e-09
7.998608418e-06
1.880474901e-09
7.997906196e-06
2.312863373e-09
7.996836866e-06
2.871711865e-09
7.995197128e-06
3.586943883e-09
7.992671863e-06
4.496283552e-09
7.988774569e-06
5.646552351e-09
7.982759796e-06
7.09469764e-09
7.973499372e-06
8.90780356e-09
7.959318826e-06
1.116030044e-08
7.937807199e-06
1.392391634e-08
7.905654692e-06
1.723822397e-08
7.858649136e-06
2.102504073e-08
7.792032621e-06
2.482447482e-08
7.701162309e-06
2.691668301e-08
0
7.999986321e-06
9.85118335e-10
7.999962112e-06
1.049113075e-09
7.999914168e-06
1.182708804e-09
7.999823348e-06
1.397865347e-09
7.999660001e-06
1.714519883e-09
7.999377109e-06
2.163366823e-09
7.998899704e-06
2.790267874e-09
7.99810839e-06
3.663026593e-09
7.996813732e-06
4.881601356e-09
7.994716785e-06
6.593230303e-09
7.991349049e-06
9.014288419e-09
7.985983096e-06
1.246065104e-08
7.977503811e-06
1.738708879e-08
7.964231921e-06
2.443219025e-08
7.943699302e-06
3.44565352e-08
7.912386811e-06
4.855071533e-08
7.865403685e-06
6.800816619e-08
7.795752102e-06
9.44760575e-08
7.691006177e-06
1.316626082e-07
0
8.000100089e-06
8.850288575e-10
8.000199615e-06
9.49587185e-10
8.000296669e-06
1.085655207e-09
8.00038629e-06
1.308244555e-09
8.000457951e-06
1.642858853e-09
8.0004916e-06
2.129718103e-09
8.000451275e-06
2.830592078e-09
8.000274745e-06
3.839557242e-09
7.999856628e-06
5.299718056e-09
7.999020889e-06
7.428969643e-09
7.997475916e-06
1.055926091e-08
7.994741207e-06
1.51953598e-08
7.990028435e-06
2.209986074e-08
7.982052978e-06
3.240764718e-08
7.968755622e-06
4.775389153e-08
7.946977834e-06
7.032850319e-08
7.912457714e-06
1.025282864e-07
7.861861526e-06
1.450722457e-07
7.80379065e-06
1.897334843e-07
0
8.00021486e-06
6.701690193e-10
8.000441514e-06
7.229329498e-10
8.000692383e-06
8.347859187e-10
8.00098116e-06
1.019468299e-09
8.001323478e-06
1.300540129e-09
8.001737598e-06
1.715598762e-09
8.002244991e-06
2.323198615e-09
8.002870586e-06
3.213962288e-09
8.003641964e-06
4.528340052e-09
8.004585851e-06
6.485082876e-09
8.00571787e-06
9.427242105e-09
8.007015876e-06
1.389735376e-08
8.008353389e-06
2.076234738e-08
8.009335191e-06
3.142584561e-08
8.008888265e-06
4.820081707e-08
8.004221893e-06
7.499487493e-08
7.988091419e-06
1.186587603e-07
7.941259283e-06
1.919043817e-07
7.810560752e-06
3.204320159e-07
0
8.000308662e-06
3.615066394e-10
8.000640364e-06
3.912315351e-10
8.001020708e-06
4.544421229e-10
8.001480843e-06
5.593330192e-10
8.00206136e-06
7.200226439e-10
8.002817775e-06
9.591839203e-10
8.003828571e-06
1.312402804e-09
8.005207258e-06
1.835275619e-09
8.007120618e-06
2.614979719e-09
8.009816356e-06
3.789344723e-09
8.013664735e-06
5.578863424e-09
8.019220309e-06
8.341779792e-09
8.027310719e-06
1.267193694e-08
8.039157362e-06
1.957920273e-08
8.056522146e-06
3.083603345e-08
8.081846578e-06
4.967044219e-08
8.118305858e-06
8.219948126e-08
8.169752855e-06
1.404573841e-07
8.241401242e-06
2.487836292e-07
0
8.000361507e-06
8.000752738e-06
8.00120718e-06
8.001766513e-06
8.002486536e-06
8.00344572e-06
8.004758123e-06
8.006593398e-06
8.009208378e-06
8.012997723e-06
8.018576586e-06
8.026918366e-06
8.039590303e-06
8.059169506e-06
8.090005539e-06
8.139675981e-06
8.221875463e-06
8.362332847e-06
8.611116476e-06
3.947647898e-07
-3.947647898e-07
7.737995944e-07
-3.790348046e-07
1.124395295e-06
-3.505957001e-07
1.438533856e-06
-3.141385612e-07
1.712921073e-06
-2.743872168e-07
1.947983386e-06
-2.350623136e-07
2.146552084e-06
-1.985686978e-07
2.312694781e-06
-1.661426967e-07
2.450869393e-06
-1.381746126e-07
2.565400207e-06
-1.145308135e-07
2.66020354e-06
-9.480333335e-08
2.73867973e-06
-7.847619015e-08
2.803703194e-06
-6.502346401e-08
2.857663072e-06
-5.395987828e-08
2.902524873e-06
-4.48618009e-08
2.939896411e-06
-3.737153787e-08
2.971089609e-06
-3.119319825e-08
2.997174634e-06
-2.608502477e-08
3.019025492e-06
-2.185085791e-08
3.037357542e-06
-1.833204953e-08
3.052757916e-06
-1.54003743e-08
3.065709996e-06
-1.29520804e-08
3.076613021e-06
-1.090302468e-08
3.085797778e-06
-9.184756697e-09
3.093539173e-06
-7.741395519e-09
3.100066324e-06
-6.527150616e-09
3.105570681e-06
-5.504357506e-09
3.110212602e-06
-4.641920496e-09
3.114126678e-06
-3.914075678e-09
3.117426083e-06
-3.299405214e-09
3.120206132e-06
-2.780048801e-09
3.122547202e-06
-2.341070059e-09
3.124517147e-06
-1.969945005e-09
3.126173294e-06
-1.656147069e-09
3.127564102e-06
-1.39080876e-09
3.128730547e-06
-1.166444486e-09
3.129707269e-06
-9.767223741e-10
3.130523545e-06
-8.162755538e-10
3.13120409e-06
-6.805453365e-10
3.131769741e-06
-5.656503082e-10
3.132238017e-06
-4.682765264e-10
3.132623602e-06
-3.855849614e-10
3.132938735e-06
-3.151330458e-10
3.133193543e-06
-2.548077698e-10
3.133396311e-06
-2.027682116e-10
3.133553707e-06
-1.573957394e-10
3.133670957e-06
-1.172504044e-10
3.133751989e-06
-8.103225804e-11
3.133799536e-06
-4.754649432e-11
-1.567144559e-11
4.227292063e-07
-8.174939961e-07
8.243579993e-07
-7.806635977e-07
1.189207982e-06
-7.154456824e-07
1.509202907e-06
-6.341334867e-07
1.782832005e-06
-5.480163146e-07
2.012860918e-06
-4.650912267e-07
2.2041983e-06
-3.899060797e-07
2.36241581e-06
-3.24360207e-07
2.492902804e-06
-2.686616067e-07
2.600471273e-06
-2.22099282e-07
2.689229562e-06
-1.835616229e-07
2.762595677e-06
-1.518423053e-07
2.82337178e-06
-1.257995671e-07
2.873837421e-06
-1.044255193e-07
2.915840886e-06
-8.686526502e-08
2.950880115e-06
-7.241076732e-08
2.980170796e-06
-6.048387881e-08
3.004702031e-06
-5.061625991e-08
3.02528114e-06
-4.242996733e-08
3.042569397e-06
-3.562030674e-08
3.057110427e-06
-2.994140397e-08
3.069352751e-06
-2.519440401e-08
3.079667708e-06
-2.121798222e-08
3.088363742e-06
-1.788079016e-08
3.095697819e-06
-1.507547319e-08
3.101884611e-06
-1.271394247e-08
3.107103891e-06
-1.072363748e-08
3.111506537e-06
-9.044565969e-09
3.115219413e-06
-7.626952487e-09
3.118349371e-06
-6.429363216e-09
3.120986527e-06
-5.417203957e-09
3.123206968e-06
-4.561511329e-09
3.125074998e-06
-3.837975127e-09
3.126644995e-06
-3.226143685e-09
3.127962961e-06
-2.708774788e-09
3.129067819e-06
-2.271302899e-09
3.129992496e-06
-1.901399782e-09
3.130764831e-06
-1.588610476e-09
3.131408336e-06
-1.324050334e-09
3.131942838e-06
-1.100151731e-09
3.132385013e-06
-9.104513313e-10
3.132748838e-06
-7.494105441e-10
3.133045968e-06
-6.122631742e-10
3.133286046e-06
-4.948853728e-10
3.133476961e-06
-3.936838244e-10
3.133625065e-06
-3.05498789e-10
3.133735333e-06
-2.27519139e-10
3.133811508e-06
-1.572069465e-10
3.133856191e-06
-9.222949512e-11
-3.039683333e-11
4.882054718e-07
-1.305699468e-06
9.403009631e-07
-1.232759089e-06
1.333763001e-06
-1.10890772e-06
1.662300108e-06
-9.626705935e-07
1.93025439e-06
-8.159705973e-07
2.146523409e-06
-6.813602459e-07
2.320724304e-06
-5.641069746e-07
2.461435553e-06
-4.650714557e-07
2.57568028e-06
-3.829063337e-07
2.668982677e-06
-3.154016787e-07
2.74561947e-06
-2.601984167e-07
2.808893889e-06
-2.151167238e-07
2.861370098e-06
-1.782757764e-07
2.905055662e-06
-1.481110831e-07
2.941537781e-06
-1.233473843e-07
2.972083483e-06
-1.029564694e-07
2.99771324e-06
-8.611363573e-08
3.019255451e-06
-7.215847057e-08
3.037387215e-06
-6.056173107e-08
3.052665236e-06
-5.08983279e-08
3.06554955e-06
-4.282571758e-08
3.076421956e-06
-3.60668109e-08
3.085600506e-06
-3.039653138e-08
3.093350983e-06
-2.563126794e-08
3.099896108e-06
-2.162059754e-08
3.105422943e-06
-1.824077748e-08
3.110088919e-06
-1.538961352e-08
3.11402675e-06
-1.298239718e-08
3.117348473e-06
-1.094867516e-08
3.120148777e-06
-9.229667876e-09
3.12250777e-06
-7.776196221e-09
3.124493266e-06
-6.547007849e-09
3.12616271e-06
-5.507419017e-09
3.127564773e-06
-4.628206894e-09
3.1287407e-06
-3.884701696e-09
3.129725436e-06
-3.256039056e-09
3.130548578e-06
-2.724541528e-09
3.131235172e-06
-2.275204668e-09
3.13180639e-06
-1.895268154e-09
3.132280095e-06
-1.573856348e-09
3.132671319e-06
-1.301675716e-09
3.132992667e-06
-1.070758942e-09
3.133254652e-06
-8.742474048e-10
3.133465971e-06
-7.06205194e-10
3.133633747e-06
-5.614589708e-10
3.133763707e-06
-4.354589321e-10
3.133860344e-06
-3.241568387e-10
3.133927035e-06
-2.238976515e-10
3.133966127e-06
-1.313217591e-10
-4.327511871e-11
6.178772567e-07
-1.923576725e-06
1.160481175e-06
-1.775363008e-06
1.593740115e-06
-1.54216666e-06
1.923100101e-06
-1.29203058e-06
2.169561682e-06
-1.062432178e-06
2.35497367e-06
-8.667722336e-07
2.496787449e-06
-7.05920754e-07
2.607506881e-06
-5.757908876e-07
2.695688556e-06
-4.710880082e-07
2.767121809e-06
-3.868349324e-07
2.825764702e-06
-3.188413096e-07
2.874388907e-06
-2.637409284e-07
2.91499622e-06
-2.188830893e-07
2.949080016e-06
-1.82194879e-07
2.977788297e-06
-1.520556655e-07
3.002026299e-06
-1.271944716e-07
3.022522423e-06
-1.066097597e-07
3.039871877e-06
-8.950792449e-08
3.054566598e-06
-7.525645241e-08
3.067016543e-06
-6.334827291e-08
3.077565384e-06
-5.337455802e-08
3.086502453e-06
-4.50038806e-08
3.094072085e-06
-3.796616308e-08
3.100481064e-06
-3.204024699e-08
3.105904677e-06
-2.704421017e-08
3.110491679e-06
-2.282777944e-08
3.114368414e-06
-1.926634934e-08
3.117642256e-06
-1.625623849e-08
3.120404486e-06
-1.371090496e-08
3.122732727e-06
-1.155790919e-08
3.124692993e-06
-9.73646265e-09
3.126341424e-06
-8.195438522e-09
3.127725754e-06
-6.891748755e-09
3.12888656e-06
-5.789013345e-09
3.129858323e-06
-4.856464057e-09
3.130670321e-06
-4.068037235e-09
3.131347399e-06
-3.401619865e-09
3.131910615e-06
-2.838420464e-09
3.132377789e-06
-2.362442051e-09
3.132763971e-06
-1.960038879e-09
3.133081838e-06
-1.619542133e-09
3.133342021e-06
-1.330942473e-09
3.133553393e-06
-1.0856195e-09
3.133723298e-06
-8.761099259e-10
3.133857747e-06
-6.959075671e-10
3.133961577e-06
-5.392893948e-10
3.134038583e-06
-4.011627052e-10
3.134091615e-06
-2.769291657e-10
3.134122655e-06
-1.623620195e-10
-5.349313224e-11
8.813683059e-07
-2.80494503e-06
1.575052455e-06
-2.469047156e-06
2.038426472e-06
-2.005540677e-06
2.33127503e-06
-1.584879138e-06
2.517401574e-06
-1.248558722e-06
2.640931846e-06
-9.903025054e-07
2.728129424e-06
-7.931183318e-07
2.793645323e-06
-6.413067867e-07
2.845471791e-06
-5.229144762e-07
2.88799935e-06
-4.293624917e-07
2.923720925e-06
-3.545628839e-07
2.954136165e-06
-2.94156169e-07
2.980219694e-06
-2.449666178e-07
3.002660828e-06
-2.046360136e-07
3.021985963e-06
-1.713808006e-07
3.038621331e-06
-1.438298391e-07
3.052925674e-06
-1.209141028e-07
3.065207816e-06
-1.017900661e-07
3.075736684e-06
-8.578532026e-08
3.08474758e-06
-7.235916966e-08
3.092446576e-06
-6.107355406e-08
3.09901394e-06
-5.157124376e-08
3.104607035e-06
-4.35592589e-08
3.109362896e-06
-3.679610732e-08
3.113400542e-06
-3.108185638e-08
3.116823098e-06
-2.625033581e-08
3.119719711e-06
-2.216296207e-08
3.122167281e-06
-1.870380897e-08
3.124232022e-06
-1.577564542e-08
3.125970842e-06
-1.329672966e-08
3.12743258e-06
-1.119820033e-08
3.128659083e-06
-9.421941435e-09
3.129686161e-06
-7.918826302e-09
3.130544414e-06
-6.647266685e-09
3.131259959e-06
-5.5720087e-09
3.131855051e-06
-4.663129721e-09
3.132348631e-06
-3.895199586e-09
3.132756787e-06
-3.246576728e-09
3.13309316e-06
-2.698815515e-09
3.133369287e-06
-2.23616554e-09
3.133594892e-06
-1.845147064e-09
3.133778139e-06
-1.51418967e-09
3.133925843e-06
-1.233323332e-09
3.134043646e-06
-9.939129413e-10
3.134136167e-06
-7.884287203e-10
3.134207124e-06
-6.102461105e-10
3.134259431e-06
-4.534696379e-10
3.134295278e-06
-3.127759809e-10
3.134316188e-06
-1.832720418e-10
-6.036426088e-11
1.478520086e-06
-4.283465116e-06
2.39906398e-06
-3.389591051e-06
2.786269216e-06
-2.392745913e-06
2.929178e-06
-1.727787922e-06
2.976523748e-06
-1.29590447e-06
2.991481498e-06
-1.005260256e-06
2.998016626e-06
-7.996534593e-07
3.004120552e-06
-6.474107135e-07
3.011786441e-06
-5.305803648e-07
3.020976442e-06
-4.385524926e-07
3.031110651e-06
-3.646970934e-07
3.041584267e-06
-3.046297852e-07
3.051918557e-06
-2.55300907e-07
3.061781218e-06
-2.144986755e-07
3.070965462e-06
-1.805650438e-07
3.079360429e-06
-1.522248066e-07
3.086923973e-06
-1.284776467e-07
3.093660709e-06
-1.085268018e-07
3.099605407e-06
-9.173001883e-08
3.104810909e-06
-7.756467086e-08
3.109339584e-06
-6.560222959e-08
3.11325748e-06
-5.548913952e-08
3.116630428e-06
-4.693220667e-08
3.119521576e-06
-3.968725543e-08
3.121989923e-06
-3.355020416e-08
3.124089552e-06
-2.834996451e-08
3.125869328e-06
-2.394273808e-08
3.127372917e-06
-2.020739807e-08
3.128638995e-06
-1.704172313e-08
3.129701573e-06
-1.435930758e-08
3.130590385e-06
-1.208701283e-08
3.131331299e-06
-1.016285543e-08
3.131946723e-06
-8.5342496e-09
3.132455995e-06
-7.156539352e-09
3.132875755e-06
-5.991768445e-09
3.133220272e-06
-5.007646486e-09
3.13350175e-06
-4.176677486e-09
3.133730596e-06
-3.475423399e-09
3.133915661e-06
-2.883880117e-09
3.134064443e-06
-2.384947313e-09
3.134183272e-06
-1.96397674e-09
3.134277469e-06
-1.608386101e-09
3.134351473e-06
-1.307327702e-09
3.134408963e-06
-1.051402767e-09
3.134452948e-06
-8.324136766e-10
3.134485849e-06
-6.431474718e-10
3.134509565e-06
-4.771848988e-10
3.134525519e-06
-3.287299646e-10
3.134534702e-06
-1.924555608e-10
-6.336115116e-11
3.067629539e-06
-7.351094655e-06
4.171233118e-06
-4.49319463e-06
3.968416759e-06
-2.189929554e-06
3.696970804e-06
-1.456341966e-06
3.493224575e-06
-1.092158241e-06
3.357004693e-06
-8.690403743e-07
3.268670397e-06
-7.113191629e-07
3.211818951e-06
-5.905592677e-07
3.175391547e-06
-4.941529615e-07
3.15227493e-06
-4.154358748e-07
3.137896977e-06
-3.503191411e-07
3.129280051e-06
-2.960128591e-07
3.124455857e-06
-2.504767133e-07
3.122107675e-06
-2.12150493e-07
3.121348106e-06
-1.798054748e-07
3.121577602e-06
-1.52454303e-07
3.122392142e-06
-1.292921864e-07
3.123521656e-06
-1.096563162e-07
3.124788248e-06
-9.299661073e-08
3.126077471e-06
-7.885389347e-08
3.127318411e-06
-6.684316966e-08
3.128469805e-06
-5.664053356e-08
3.129510341e-06
-4.797274266e-08
3.130431889e-06
-4.060880361e-08
3.131234794e-06
-3.435310906e-08
3.131924621e-06
-2.90397919e-08
3.132509933e-06
-2.452804937e-08
3.133000784e-06
-2.069824926e-08
3.133407734e-06
-1.744867304e-08
3.133741208e-06
-1.469278184e-08
3.13401111e-06
-1.235691448e-08
3.134226599e-06
-1.037834442e-08
3.134395985e-06
-8.703636306e-09
3.134526699e-06
-7.287253187e-09
3.134625305e-06
-6.090374506e-09
3.13469755e-06
-5.079891325e-09
3.134748424e-06
-4.227551092e-09
3.134782229e-06
-3.509228641e-09
3.134802653e-06
-2.904303867e-09
3.134812835e-06
-2.395129564e-09
3.134815434e-06
-1.966575423e-09
3.134812684e-06
-1.60563633e-09
3.134806451e-06
-1.301094801e-09
3.134798277e-06
-1.04322887e-09
3.134789421e-06
-8.235579471e-10
3.134780894e-06
-6.346201545e-10
3.134773485e-06
-4.697754688e-10
3.134767784e-06
-3.230296722e-10
3.134764203e-06
-1.88874646e-10
-6.214096167e-11
0
0
0
0
5.272572452e-06
0
4.34440852e-06
-5.281780335e-07
3.889878546e-06
-6.376282678e-07
3.637397944e-06
-6.16559772e-07
3.483354642e-06
-5.572758606e-07
3.383207927e-06
-4.904125528e-07
3.315333022e-06
-4.262780571e-07
3.268038e-06
-3.681408519e-07
3.234441466e-06
-3.167226079e-07
3.210233187e-06
-2.718045799e-07
3.192591348e-06
-2.328348746e-07
3.179609917e-06
-1.99169062e-07
3.1699724e-06
-1.70167957e-07
3.162754687e-06
-1.4523659e-07
3.157300344e-06
-1.238378434e-07
3.153138899e-06
-1.05494871e-07
3.149930845e-06
-8.978855701e-08
3.147429857e-06
-7.635290549e-08
3.145456419e-06
-6.486973157e-08
3.143879199e-06
-5.506331392e-08
3.142601776e-06
-4.669531981e-08
3.141553112e-06
-3.956013933e-08
3.140680679e-06
-3.348067638e-08
3.139945485e-06
-2.830459775e-08
3.139318454e-06
-2.390101858e-08
3.138777796e-06
-2.015759131e-08
3.138307084e-06
-1.697796069e-08
3.137893849e-06
-1.427954706e-08
3.137528556e-06
-1.19916209e-08
3.137203846e-06
-1.005363442e-08
3.136913988e-06
-8.413778573e-09
3.136654472e-06
-7.02773691e-09
3.136421708e-06
-5.857610787e-09
3.13621281e-06
-4.870993147e-09
3.13602543e-06
-4.040170866e-09
3.135857639e-06
-3.341438012e-09
3.13570784e-06
-2.754504561e-09
3.135574697e-06
-2.261987081e-09
3.135457091e-06
-1.848969575e-09
3.135354079e-06
-1.502624225e-09
3.135264868e-06
-1.211883061e-09
3.135188791e-06
-9.671527366e-10
3.135125299e-06
-7.600655421e-10
3.135073939e-06
-5.832606475e-10
3.135034354e-06
-4.301902364e-10
3.13500627e-06
-2.949457883e-10
3.134989496e-06
-1.721002347e-10
-5.656208614e-11
0
0
0
0
4.333589301e-06
0
4.149830342e-06
-3.444190746e-07
3.927333664e-06
-4.151315903e-07
3.742791578e-06
-4.320176858e-07
3.602222758e-06
-4.167070401e-07
3.497224821e-06
-3.854146161e-07
3.418688067e-06
-3.477413028e-07
3.359448223e-06
-3.089010087e-07
3.314295751e-06
-2.71570135e-07
3.279512675e-06
-2.370215045e-07
3.252441694e-06
-2.057638932e-07
3.231167449e-06
-1.778948175e-07
3.214294842e-06
-1.532953495e-07
3.200796915e-06
-1.317386629e-07
3.189910084e-06
-1.129510132e-07
3.181061246e-06
-9.664603308e-08
3.173816459e-06
-8.254376997e-08
3.1678444e-06
-7.038084622e-08
3.162890062e-06
-5.991539342e-08
3.158755645e-06
-5.092889688e-08
3.155286553e-06
-4.322622828e-08
3.152361058e-06
-3.66346439e-08
3.149882609e-06
-3.100222713e-08
3.147774082e-06
-2.61960712e-08
3.145973448e-06
-2.210038443e-08
3.144430485e-06
-1.861462818e-08
3.143104276e-06
-1.565175147e-08
3.141961285e-06
-1.313655678e-08
3.140973877e-06
-1.100421234e-08
3.140119157e-06
-9.198914411e-09
3.139378074e-06
-7.672695618e-09
3.138734708e-06
-6.384370784e-09
3.138175707e-06
-5.298609765e-09
3.137689839e-06
-4.385125441e-09
3.137267633e-06
-3.617964993e-09
3.136901088e-06
-2.974892885e-09
3.136583438e-06
-2.43685464e-09
3.136308962e-06
-1.987511312e-09
3.136072828e-06
-1.612835451e-09
3.135870964e-06
-1.300760231e-09
3.135699955e-06
-1.040874274e-09
3.135556958e-06
-8.24155483e-10
3.135439631e-06
-6.427379371e-10
3.135346076e-06
-4.897065035e-10
3.135274801e-06
-3.58914403e-10
3.135224674e-06
-2.448194253e-10
3.135194909e-06
-1.42334881e-10
-4.66916972e-11
0
0
0
0
4.107943039e-06
0
4.024119203e-06
-2.605952387e-07
3.897313939e-06
-2.883263265e-07
3.770010504e-06
-3.047142508e-07
3.657853734e-06
-3.045502698e-07
3.5641996e-06
-2.917604825e-07
3.487737478e-06
-2.712791812e-07
3.425814221e-06
-2.469777513e-07
3.375715538e-06
-2.214714522e-07
3.335081762e-06
-1.963877283e-07
3.301986717e-06
-1.726688486e-07
3.274899837e-06
-1.508079372e-07
3.25261784e-06
-1.310133527e-07
3.234197181e-06
-1.133180036e-07
3.218896716e-06
-9.765054792e-08
3.206131937e-06
-8.388125384e-08
3.195439435e-06
-7.185126849e-08
3.18644965e-06
-6.139106079e-08
3.178866056e-06
-5.23317997e-08
3.172449278e-06
-4.451211907e-08
3.167004926e-06
-3.778187589e-08
3.162374243e-06
-3.200396159e-08
3.158426886e-06
-2.705486972e-08
3.155055303e-06
-2.282448835e-08
3.152170348e-06
-1.921542934e-08
3.149697821e-06
-1.614210141e-08
3.147575733e-06
-1.352966312e-08
3.14575212e-06
-1.131294386e-08
3.144183295e-06
-9.435387728e-09
3.142832435e-06
-7.848053717e-09
3.141668429e-06
-6.508690067e-09
3.14066495e-06
-5.38089121e-09
3.139799679e-06
-4.433339062e-09
3.13905368e-06
-3.639126398e-09
3.138410872e-06
-2.975157626e-09
3.1378576e-06
-2.421620893e-09
3.137382271e-06
-1.961524866e-09
3.136975053e-06
-1.580293377e-09
3.136627629e-06
-1.265411297e-09
3.136332984e-06
-1.006115328e-09
3.136085233e-06
-7.931238573e-10
3.135879478e-06
-6.184004605e-10
3.135711686e-06
-4.749461332e-10
3.135578596e-06
-3.566157672e-10
3.135477636e-06
-2.579547959e-10
3.135406869e-06
-1.740522921e-10
3.135364941e-06
-1.004071085e-10
-3.2803905e-11
0
0
0
0
4.109091821e-06
0
3.974819476e-06
-1.263228939e-07
3.868179837e-06
-1.816866871e-07
3.770302012e-06
-2.068364256e-07
3.68059112e-06
-2.148393779e-07
3.600610789e-06
-2.117801521e-07
3.530940007e-06
-2.016083992e-07
3.47115874e-06
-1.871964842e-07
3.420308812e-06
-1.706215246e-07
3.377248647e-06
-1.533275624e-07
3.340850547e-06
-1.362707495e-07
3.310090197e-06
-1.200475871e-07
3.284076226e-06
-1.049993816e-07
3.262050423e-06
-9.129220074e-08
3.243375449e-06
-7.897557319e-08
3.227518565e-06
-6.802437026e-08
3.214035348e-06
-5.836805123e-08
3.202554991e-06
-4.991070369e-08
3.192767698e-06
-4.254450741e-08
3.184414143e-06
-3.615856358e-08
3.177276761e-06
-3.064449441e-08
3.171172617e-06
-2.589981723e-08
3.165947552e-06
-2.182980477e-08
3.161471396e-06
-1.834833244e-08
3.15763403e-06
-1.537806349e-08
3.154342144e-06
-1.285021526e-08
3.151516555e-06
-1.07040743e-08
3.149089986e-06
-8.886374251e-09
3.147005211e-06
-7.350612694e-09
3.145213514e-06
-6.056356836e-09
3.143673393e-06
-4.968569332e-09
3.142349475e-06
-4.056973048e-09
3.141211601e-06
-3.295464835e-09
3.140234057e-06
-2.661582662e-09
3.139394926e-06
-2.136026636e-09
3.138675537e-06
-1.702232093e-09
3.138060004e-06
-1.345991471e-09
3.137534831e-06
-1.055120942e-09
3.137088587e-06
-8.191673906e-10
3.136711623e-06
-6.291513175e-10
3.136395841e-06
-4.773413109e-10
3.136134496e-06
-3.570559826e-10
3.13592204e-06
-2.624895099e-10
3.135753981e-06
-1.885572189e-10
3.135626784e-06
-1.307579144e-10
3.135537782e-06
-8.504992303e-11
3.135485113e-06
-4.773803883e-11
-1.536874649e-11
0
0
0
0
3.884517803e-06
0
3.87639497e-06
-1.182000611e-07
3.823469205e-06
-1.287609222e-07
3.756074555e-06
-1.394417756e-07
3.686029757e-06
-1.447945801e-07
3.618693919e-06
-1.444443137e-07
3.556561203e-06
-1.394756831e-07
3.500625348e-06
-1.312606293e-07
3.451053647e-06
-1.210498238e-07
3.407571882e-06
-1.098457977e-07
3.369691738e-06
-9.839060504e-08
3.336842575e-06
-8.719842425e-08
3.30844456e-06
-7.660136686e-08
3.283946662e-06
-6.679430298e-08
3.262844266e-06
-5.787317682e-08
3.244685367e-06
-4.986547079e-08
3.229070644e-06
-4.275332904e-08
3.215650463e-06
-3.649052206e-08
3.204120499e-06
-3.101454407e-08
3.194216944e-06
-2.625500868e-08
3.185711755e-06
-2.213930489e-08
3.178408207e-06
-1.859626892e-08
3.172136848e-06
-1.555844621e-08
3.166751886e-06
-1.29633705e-08
3.162127995e-06
-1.075417189e-08
3.158157518e-06
-8.879738398e-09
3.154748034e-06
-7.294590533e-09
3.15182024e-06
-5.958580644e-09
3.149306122e-06
-4.836494187e-09
3.14714737e-06
-3.897605094e-09
3.14529402e-06
-3.115219756e-09
3.143703279e-06
-2.466231641e-09
3.142338514e-06
-1.930699868e-09
3.141168391e-06
-1.491459105e-09
3.140166128e-06
-1.133764119e-09
3.139308866e-06
-8.449696507e-10
3.138577119e-06
-6.142445771e-10
3.137954316e-06
-4.323183207e-10
3.137426406e-06
-2.912568551e-10
3.13698152e-06
-1.842654099e-10
3.136609693e-06
-1.055148913e-10
3.136302626e-06
-4.99890936e-11
3.136053487e-06
-1.334989661e-11
3.135856747e-06
8.182194539e-12
3.135708055e-06
1.793463565e-11
3.135604126e-06
1.887885855e-11
3.13554267e-06
1.371786128e-11
4.967388463e-12
0
0
0
0
3.906947668e-06
0
3.857620101e-06
-6.887249481e-08
3.804481017e-06
-7.562183754e-08
3.746558454e-06
-8.151921272e-08
3.686652449e-06
-8.48885748e-08
3.627527036e-06
-8.531890088e-08
3.571165739e-06
-8.311438626e-08
3.518777887e-06
-7.887277743e-08
3.470971912e-06
-7.324384847e-08
3.427936665e-06
-6.681055136e-08
3.389588944e-06
-6.004288392e-08
3.355681784e-06
-5.329126434e-08
3.325879337e-06
-4.679891922e-08
3.299806439e-06
-4.072140484e-08
3.277080184e-06
-3.514692246e-08
3.25732917e-06
-3.011445705e-08
3.24020452e-06
-2.562867841e-08
3.225385531e-06
-2.167153336e-08
3.212581892e-06
-1.8210905e-08
3.201533748e-06
-1.520686427e-08
3.192010482e-06
-1.261603926e-08
3.183808777e-06
-1.039456373e-08
3.176750312e-06
-8.499981886e-09
3.170679347e-06
-6.892404823e-09
3.165460317e-06
-5.535142299e-09
3.160975555e-06
-4.394975984e-09
3.157123159e-06
-3.44219481e-09
3.153815057e-06
-2.650478718e-09
3.150975254e-06
-1.996691481e-09
3.148538274e-06
-1.460624455e-09
3.146447774e-06
-1.024719564e-09
3.144655332e-06
-6.737900736e-10
3.143119383e-06
-3.947508843e-10
3.141804289e-06
-1.763652769e-10
3.140679537e-06
-9.011795271e-12
3.13971904e-06
1.155272708e-10
3.13890054e-06
2.042557691e-10
3.138205088e-06
2.631328169e-10
3.137616609e-06
2.972226046e-10
3.137121517e-06
3.108265888e-10
3.136708402e-06
3.075999208e-10
3.136367759e-06
2.906539737e-10
3.136091762e-06
2.626467933e-10
3.135874081e-06
2.258632076e-10
3.13570973e-06
1.8228624e-10
3.135594947e-06
1.336613648e-10
3.13552711e-06
8.155505085e-11
2.740895304e-11
0
0
0
0
3.898203016e-06
0
3.845621268e-06
-1.629074752e-08
3.793996793e-06
-2.399736192e-08
3.740568475e-06
-2.809089538e-08
3.685887423e-06
-3.020752248e-08
3.631446171e-06
-3.087764925e-08
3.578706375e-06
-3.037459024e-08
3.528784871e-06
-2.895127247e-08
3.482408883e-06
-2.686786102e-08
3.439968073e-06
-2.436974116e-08
3.401591822e-06
-2.166663331e-08
3.36722373e-06
-1.892317206e-08
3.336683805e-06
-1.625899472e-08
3.309716628e-06
-1.37542276e-08
3.286026788e-06
-1.145708237e-08
3.265303887e-06
-9.391555743e-09
3.247239443e-06
-7.564234736e-09
3.231537758e-06
-5.969848303e-09
3.217922408e-06
-4.595554605e-09
3.206139658e-06
-3.424114133e-09
3.195959771e-06
-2.436152365e-09
3.187176921e-06
-1.611714188e-09
3.179608226e-06
-9.312868463e-10
3.173092257e-06
-3.764355278e-10
3.167487278e-06
6.983610424e-11
3.162669387e-06
4.229155665e-10
3.158530653e-06
6.965388373e-10
3.154977344e-06
9.028300582e-10
3.151928261e-06
1.0523916e-09
3.149313215e-06
1.154422201e-09
3.147071647e-06
1.216848009e-09
3.145151401e-06
1.246456473e-09
3.143507623e-06
1.249026689e-09
3.142101805e-06
1.22945233e-09
3.140900939e-06
1.191855045e-09
3.139876778e-06
1.139687424e-09
3.139005209e-06
1.07582536e-09
3.138265691e-06
1.002650194e-09
3.137640793e-06
9.221212701e-10
3.13711578e-06
8.358397472e-10
3.136678275e-06
7.451045616e-10
3.136317967e-06
6.509614557e-10
3.136026368e-06
5.542459813e-10
3.13579661e-06
4.556213438e-10
3.135623284e-06
3.556119018e-10
3.135502313e-06
2.546330956e-10
3.135430849e-06
1.530185228e-10
5.104484316e-11
0
0
0
0
3.869241688e-06
0
3.831920622e-06
2.103031867e-08
3.786719401e-06
2.120385873e-08
3.736805584e-06
2.182292176e-08
3.684696088e-06
2.190197375e-08
3.6323405e-06
2.147793877e-08
3.581236719e-06
2.072919025e-08
3.532488714e-06
1.979673261e-08
3.486849986e-06
1.877086708e-08
3.444773599e-06
1.770664596e-08
3.406469088e-06
1.663787793e-08
3.371960046e-06
1.558586942e-08
3.341136726e-06
1.456432574e-08
3.313800443e-06
1.358205522e-08
3.289698837e-06
1.264452413e-08
3.268552459e-06
1.175482223e-08
3.250073909e-06
1.091431485e-08
3.233980948e-06
1.012311273e-08
3.22000497e-06
9.380423751e-09
3.207896035e-06
8.684820371e-09
3.19742544e-06
8.034443143e-09
3.188386571e-06
7.42715462e-09
3.18059463e-06
6.860654459e-09
3.17388563e-06
6.332564323e-09
3.168114976e-06
5.840489478e-09
3.163155829e-06
5.38206257e-09
3.158897394e-06
4.954973908e-09
3.155243233e-06
4.556991599e-09
3.15210965e-06
4.185974131e-09
3.149424195e-06
3.83987738e-09
3.147124286e-06
3.516757526e-09
3.145155971e-06
3.214771015e-09
3.143472825e-06
2.932172399e-09
3.142034967e-06
2.667310693e-09
3.140808197e-06
2.418624707e-09
3.139763247e-06
2.184637695e-09
3.138875121e-06