/*--------------------------------*- C++ -*----------------------------------*\
| =========                 |                                                 |
| \\      /  F ield         | OpenFOAM Extend Project: Open source CFD        |
|  \\    /   O peration     | Version:  1.6-ext                               |
|   \\  /    A nd           | Web:      www.extend-project.de                 |
|    \\/     M anipulation  |                                                 |
\*---------------------------------------------------------------------------*/
FoamFile
{
    version     2.0;
    format      binary;
    class       polyBoundaryMesh;
    location    "constant/polyMesh";
    object      boundary;
}
// * * * * * * * * * * * * * * * * * * * * * * * * * * * * * * * * * * * * * //

8
(
    oversetFaces
    {
        type            overset;
        nFaces          0;
        startFace       5170;
    }
    in
    {
        type            patch;
        nFaces          25;
        startFace       5170;
    }
    out
    {
        type            patch;
        nFaces          25;
        startFace       5195;
    }
    top
    {
        type            wall;
        nFaces          75;
        startFace       5220;
    }
    bottom
    {
        type            wall;
        nFaces          75;
        startFace       5295;
    }
    cylinder
    {
        type            wall;
        nFaces          80;
        startFace       5370;
    }
    outerCylinder
    {
        type            patch;
        nFaces          80;
        startFace       5450;
    }
    frontAndBack
    {
        type            empty;
        nFaces          5350;
        startFace       5530;
    }
)

// ************************************************************************* //
