FoamFile
{
    version     2.0;
    format      ascii;
    class       polyBoundaryMesh;
    location    "constant/polyMesh";
    object      boundary;
}
5
(
hull
{
        type           wall;
        nFaces         3500;
        startFace      555900;
}
imax_farfield
{
        type           patch;
        nFaces         2100;
        startFace      559400;
}
imin_farfield
{
        type           patch;
        nFaces         2100;
        startFace      561500;
}
kmin_farfield
{
        type           patch;
        nFaces         6300;
        startFace      563600;
}
symmetry
{
        type           symmetryPlane;
        nFaces         8200;
        startFace      569900;
}
)
