/*--------------------------------*- C++ -*----------------------------------*\
| =========                 |                                                 |
| \\      /  F ield         | OpenFOAM Extend Project: Open source CFD        |
|  \\    /   O peration     | Version:  1.6-ext                               |
|   \\  /    A nd           | Web:      www.extend-project.de                 |
|    \\/     M anipulation  |                                                 |
\*---------------------------------------------------------------------------*/
FoamFile
{
    version     2.0;
    format      ascii;
    class       polyBoundaryMesh;
    location    "constant/polyMesh";
    object      boundary;
}
// * * * * * * * * * * * * * * * * * * * * * * * * * * * * * * * * * * * * * //

7
(
    oversetFaces
    {
        type            overset;
        nFaces          0;
        startFace       7430;
    }
    inlet
    {
        type            patch;
        nFaces          20;
        startFace       7430;
    }
    leftOut
    {
        type            patch;
        nFaces          20;
        startFace       7450;
    }
    inletWalls
    {
        type            wall;
        nFaces          60;
        startFace       7470;
    }
    outlet
    {
        type            wall;
        nFaces          40;
        startFace       7530;
    }
    outletWalls
    {
        type            wall;
        nFaces          200;
        startFace       7570;
    }
    frontAndBack
    {
        type            empty;
        nFaces          7600;
        startFace       7770;
    }
)

// ************************************************************************* //
