/*--------------------------------*- C++ -*----------------------------------*\
| =========                 |                                                 |
| \\      /  F ield         | OpenFOAM Extend Project: Open source CFD        |
|  \\    /   O peration     | Version:  1.6-ext                               |
|   \\  /    A nd           | Web:      www.extend-project.de                 |
|    \\/     M anipulation  |                                                 |
\*---------------------------------------------------------------------------*/
FoamFile
{
    version     2.0;
    format      ascii;
    class       polyBoundaryMesh;
    location    "constant/polyMesh";
    object      boundary;
}
// * * * * * * * * * * * * * * * * * * * * * * * * * * * * * * * * * * * * * //

8
(
    oversetFaces
    {
        type            overset;
        nFaces          0;
        startFace       98;
    }
    left
    {
        type            patch;
        nFaces          5;
        startFace       98;
    }
    leftEnd
    {
        type            patch;
        nFaces          5;
        startFace       103;
    }
    rightStart
    {
        type            patch;
        nFaces          5;
        startFace       108;
    }
    right
    {
        type            patch;
        nFaces          5;
        startFace       113;
    }
    top
    {
        type            wall;
        nFaces          12;
        startFace       118;
    }
    bottom
    {
        type            wall;
        nFaces          12;
        startFace       130;
    }
    frontAndBack
    {
        type            empty;
        nFaces          120;
        startFace       142;
    }
)

// ************************************************************************* //
