/*--------------------------------*- C++ -*----------------------------------*\
| =========                 |                                                 |
| \\      /  F ield         | foam-extend: Open Source CFD                    |
|  \\    /   O peration     | Version:     3.2                                |
|   \\  /    A nd           | Web:         http://www.foam-extend.org         |
|    \\/     M anipulation  | For copyright notice see file Copyright         |
\*---------------------------------------------------------------------------*/
FoamFile
{
    version     2.0;
    format      ascii;
    class       volScalarField;
    location    "0";
    object      k;
}
// * * * * * * * * * * * * * * * * * * * * * * * * * * * * * * * * * * * * * //

dimensions      [0 2 -2 0 0 0 0];

internalField   uniform 0.5;

boundaryField
{
    overset
    {
        type             overset;
        coupledFringe    yes;
        setHoleCellValue no;
        holeCellValue    0.5;
        value            nonuniform 0();
    }
    shaft 
    {
        type            kqRWallFunction;
        value           uniform 0.5;
    }
    shaftLong
    {
        type            kqRWallFunction;
        value           uniform 0.5;
    }
    propeller
    {
        type            kqRWallFunction;
        value           uniform 0.5;
    }
    propellerFarfield
    {
        type            emptyOverset;
    }
    propellerHole
    {
        type            emptyOverset;
    }
    inlet
    {
        type            fixedValue;
        value           uniform 0.5;
    }
    outlet
    {
        type            inletOutlet;
        inletValue      uniform 0.5;
        value           uniform 0.5;
    }
    farfield
    {
        type            inletOutlet;
        inletValue      uniform 0.5;
        value           uniform 0.5;
    }
}


// ************************************************************************* //
