/*--------------------------------*- C++ -*----------------------------------*\
| =========                 |                                                 |
| \\      /  F ield         | OpenFOAM Extend Project: Open source CFD        |
|  \\    /   O peration     | Version:  1.6-ext                               |
|   \\  /    A nd           | Web:      www.extend-project.de                 |
|    \\/     M anipulation  |                                                 |
\*---------------------------------------------------------------------------*/
FoamFile
{
    version     2.0;
    format      ascii;
    class       volScalarField;
    location    "0";
    object      divFlux;
}
// * * * * * * * * * * * * * * * * * * * * * * * * * * * * * * * * * * * * * //

dimensions      [0 0 -1 0 0 0 0];

internalField   nonuniform List<scalar> 
2675
(
0
2.439133337e-13
2.000173955e-13
1.930363547e-13
2.005462622e-13
2.073792203e-13
2.119697835e-13
2.264395771e-13
2.428556003e-13
2.536867908e-13
2.680719657e-13
2.941345179e-13
3.087735489e-13
3.368669494e-13
3.625064082e-13
3.953384545e-13
4.232626176e-13
4.613410218e-13
4.914652705e-13
5.256512156e-13
5.679605536e-13
5.930076818e-13
6.25332016e-13
6.458097356e-13
6.686514895e-13
6.689529435e-13
6.742416108e-13
6.552870273e-13
6.410710898e-13
6.065466699e-13
5.838688647e-13
5.588217366e-13
5.161739239e-13
4.337553334e-13
3.887381978e-13
3.955076919e-13
3.782454819e-13
3.39320891e-13
3.021732922e-13
2.73487561e-13
2.466634407e-13
2.233933048e-13
2.046925774e-13
1.830301963e-13
1.716489844e-13
1.596331324e-13
1.413978077e-13
1.310108652e-13
1.209412427e-13
1.139390473e-13
1.037848062e-13
9.259398627e-14
8.92938579e-14
8.17680844e-14
8.077910362e-14
7.106382188e-14
6.224761357e-14
6.424276329e-14
5.667071395e-14
5.156715005e-14
4.576548207e-14
4.61191617e-14
3.636752037e-14
3.67823502e-14
3.75353242e-14
3.081177542e-14
2.750140026e-14
2.207688036e-14
2.350465525e-14
1.870857777e-14
1.69932316e-14
1.936077787e-14
7.865322466e-15
8.063048381e-15
5.415595267e-15
2.545329776e-13
3.980039428e-13
3.473173558e-13
3.616179121e-13
3.662719393e-13
3.934345343e-13
4.03038754e-13
4.27070458e-13
4.554177145e-13
4.939192121e-13
5.209125698e-13
5.649142813e-13
6.106083664e-13
6.52748467e-13
7.050428088e-13
7.652913062e-13
8.20462683e-13
8.86803725e-13
9.416366271e-13
1.00730072e-12
1.062810571e-12
1.112227878e-12
1.158260438e-12
1.188723161e-12
1.20348912e-12
1.191092484e-12
1.169768578e-12
1.133890259e-12
1.093273295e-12
1.025578354e-12
9.572064635e-13
8.854498262e-13
8.708954139e-13
7.771379208e-13
6.661182179e-13
6.173778605e-13
5.8353039e-13
5.270051144e-13
4.794494185e-13
4.366323684e-13
3.968615907e-13
3.618294588e-13
3.28066607e-13
3.039502844e-13
2.729375396e-13
2.602870475e-13
2.274550012e-13
2.110389781e-13
2.024924918e-13
1.814012868e-13
1.704220136e-13
1.53043453e-13
1.530222983e-13
1.362678004e-13
1.26356838e-13
1.17519475e-13
1.094225255e-13
9.656313104e-14
9.516956722e-14
8.269888984e-14
7.746575359e-14
6.969670139e-14
6.331328002e-14
5.881262419e-14
5.257992983e-14
5.24655624e-14
4.3585229e-14
4.491334556e-14
3.291666498e-14
2.76559285e-14
2.295149371e-14
1.976044411e-14
1.341569611e-14
1.037979452e-14
1.083119053e-14
2.003770249e-13
3.318321381e-13
2.957422728e-13
3.009886307e-13
3.048810898e-13
3.214663503e-13
3.432979687e-13
3.588678051e-13
3.801070928e-13
4.088774427e-13
4.413710143e-13
4.698028894e-13
5.097429045e-13
5.449442738e-13
5.957154794e-13
6.485175332e-13
7.06058233e-13
7.466751975e-13
8.103084418e-13
8.651413439e-13
9.287745883e-13
9.632990081e-13
1.014070214e-12
1.049948532e-12
1.058283472e-12
1.057860379e-12
1.037086494e-12
1.005269871e-12
9.612681599e-13
9.044044096e-13
8.333247217e-13
7.602141856e-13
7.960925043e-13
7.480290963e-13
5.862381877e-13
5.073735816e-13
4.789417064e-13
4.471250842e-13
4.088774427e-13
3.699528517e-13
3.437210621e-13
3.041195217e-13
2.793262496e-13
2.545329776e-13
2.288089e-13
2.128159703e-13
1.972884432e-13
1.776569104e-13
1.688988774e-13
1.521232249e-13
1.486538591e-13
1.293396463e-13
1.211316348e-13
1.166362676e-13
1.105225683e-13
9.962262505e-14
9.238243958e-14
8.342872592e-14
7.219295234e-14
7.312640211e-14
6.73062238e-14
6.133267413e-14
4.90034686e-14
4.608412428e-14
4.705062822e-14
3.564627837e-14
4.204027708e-14
3.239110367e-14
2.82150398e-14
2.523024821e-14
2.125945073e-14
1.634991481e-14
1.689497808e-14
7.168127378e-15
0
1.787146438e-13
3.105505411e-13
2.705259073e-13
2.79495487e-13
2.916805763e-13
3.034425723e-13
3.208740196e-13
3.296743619e-13
3.603063226e-13
3.790916687e-13
4.088774427e-13
4.383247419e-13
4.836803523e-13
5.131276516e-13
5.605141102e-13
6.09931417e-13
6.661182179e-13
7.229819682e-13
7.811996173e-13
8.394172664e-13
8.976349155e-13
2.614378615e-12
2.315166977e-12
2.346306649e-12
2.399616415e-12
2.382777299e-12
2.301627989e-12
2.237994744e-12
2.043033315e-12
4.35955419e-13
8.285860759e-13
6.295629498e-13
6.13316164e-13
7.189202717e-13
6.241473545e-13
5.212510445e-13
4.616794965e-13
4.098928668e-13
3.824764157e-13
3.4896742e-13
3.203663075e-13
2.861803624e-13
2.599485728e-13
2.357476315e-13
2.218701686e-13
1.966538031e-13
1.823532469e-13
1.674603599e-13
1.544713931e-13
1.47701899e-13
1.277742008e-13
1.220412855e-13
1.152083274e-13
1.008654619e-13
1.008019978e-13
9.309112099e-14
7.655874716e-14
8.02502369e-14
7.372931018e-14
6.205193288e-14
6.042302337e-14
5.660989428e-14
5.651073177e-14
4.140762026e-14
4.273904224e-14
3.0816403e-14
3.219013432e-14
3.138030715e-14
2.856971104e-14
1.838935712e-14
1.587162097e-14
1.413826028e-14
1.038033165e-14
5.95950164e-15
0
1.732990485e-13
2.818648099e-13
2.483558142e-13
2.532636974e-13
2.713720941e-13
2.719644248e-13
2.931190938e-13
3.122429146e-13
3.218894437e-13
3.523521671e-13
3.794301434e-13
4.08538968e-13
4.41709489e-13
4.853727258e-13
5.32082235e-13
5.808225924e-13
6.349785451e-13
6.986117895e-13
7.60891135e-13
2.20820897e-12
3.655526805e-12
-0
0
0
0
-0
-0
-0
0
3.520136924e-12
1.527197865e-12
4.305398237e-13
6.471636344e-13
5.889459853e-13
5.395286785e-13
5.043273093e-13
4.528791542e-13
3.902613339e-13
3.533675912e-13
3.262896148e-13
2.900728215e-13
2.582561993e-13
2.40824752e-13
2.117159275e-13
2.027463478e-13
1.872611301e-13
1.667834105e-13
1.523559262e-13
1.345013856e-13
1.364899245e-13
1.177891971e-13
1.05329097e-13
1.041655902e-13
9.062660205e-14
8.787649508e-14
8.141374369e-14
7.634720047e-14
6.341112036e-14
6.364911039e-14
6.439481247e-14
4.942259548e-14
5.036926692e-14
5.153806238e-14
3.285452314e-14
3.461564934e-14
3.166853951e-14
3.286840589e-14
2.069786038e-14
2.562623717e-14
2.29957863e-14
1.905407649e-14
1.027505412e-14
5.215121724e-15
4.506522948e-15
5.415595267e-15
1.570522627e-13
2.536021721e-13
2.209393632e-13
2.310089856e-13
2.388785225e-13
2.506405185e-13
2.628256078e-13
2.758568839e-13
2.998885879e-13
3.208740196e-13
3.509982683e-13
3.72999124e-13
4.088774427e-13
4.501713566e-13
4.867266246e-13
5.415595267e-13
5.970693782e-13
6.607026226e-13
3.308928708e-12
-0
0
0
0
0
0
0
0
0
0
-0
0
2.033556023e-12
3.560753888e-13
6.79657206e-13
4.901113717e-13
4.386632166e-13
3.99400151e-13
3.641987817e-13
3.24935716e-13
2.937960432e-13
2.592716234e-13
2.371015303e-13
2.193316083e-13
1.961460911e-13
1.828609589e-13
1.589984923e-13
1.416516637e-13
1.380130606e-13
1.208777787e-13
1.17154557e-13
1.059848918e-13
9.957502704e-14
8.874383651e-14
8.23339718e-14
7.732031524e-14
7.24335867e-14
7.03498518e-14
5.573726418e-14
5.700125565e-14
5.028993691e-14
4.480558897e-14
4.531330102e-14
3.509824023e-14
3.329216036e-14
3.512468356e-14
2.122342169e-14
3.13783239e-14
2.020270891e-14
1.894929477e-14
1.635619511e-14
8.048690476e-15
9.570008665e-15
1.137790651e-14
6.307479418e-15
5.415595267e-15
1.462210722e-13
2.117159275e-13
1.912382079e-13
1.937767682e-13
2.073157563e-13
2.147621998e-13
2.350706821e-13
2.409939894e-13
2.626563705e-13
2.822879033e-13
3.029348603e-13
3.317052101e-13
3.655526805e-13
3.980462521e-13
4.366323684e-13
4.928191693e-13
5.510368184e-13
1.803393224e-12
-0
0
0
0
0
0
0
0
0
0
0
0
0
0
8.434789629e-13
5.144815504e-13
4.603255977e-13
3.960154039e-13
3.540445406e-13
3.113967279e-13
2.866880745e-13
2.569023005e-13
2.267780518e-13
2.054541454e-13
1.890381223e-13
1.665295545e-13
1.540906091e-13
1.411439517e-13
1.26166446e-13
1.216816562e-13
1.052233237e-13
9.959618171e-14
8.512638811e-14
8.476675873e-14
7.522600301e-14
7.131238924e-14
6.368613106e-14
5.814360778e-14
5.187124842e-14
5.408191133e-14
4.08602432e-14
4.551427038e-14
3.827937358e-14
3.323398502e-14
3.329216036e-14
2.541469048e-14
3.234681109e-14
2.152487572e-14
1.78961889e-14
1.342131532e-14
1.898829869e-14
1.500064358e-14
1.061567734e-14
5.110009462e-15
4.478013726e-15
5.172151303e-15
-5.415595267e-15
1.191430959e-13
1.728759552e-13
1.683911653e-13
1.584907802e-13
1.736375233e-13
1.776992197e-13
1.915766826e-13
2.046079587e-13
2.166238107e-13
2.338860206e-13
2.606255222e-13
2.76872308e-13
3.107197785e-13
3.452441983e-13
3.817994663e-13
4.305398237e-13
4.792801811e-13
2.106666559e-12
-0
0
0
0
0
0
0
0
0
0
0
0
0
0
2.342244953e-12
2.247472036e-13
3.520136924e-13
3.391516536e-13
2.965038409e-13
2.646872187e-13
2.359168688e-13
2.193316083e-13
1.888688849e-13
1.683911653e-13
1.541752278e-13
1.357283564e-13
1.265895394e-13
1.143198313e-13
1.034886408e-13
9.629605334e-14
8.77918764e-14
7.48875283e-14
7.194702931e-14
5.86407425e-14
5.722337968e-14
5.47482834e-14
4.666719984e-14
4.537676503e-14
4.259492606e-14
3.616390668e-14
3.216038557e-14
3.612688601e-14
3.327629436e-14
2.172320074e-14
2.020006457e-14
1.967384218e-14
1.698587705e-14
1.568883141e-14
1.61952213e-14
1.765092696e-14
8.662175877e-15
7.325795771e-15
7.506932624e-15
5.985449164e-15
1.252587785e-15
1.170365536e-15
5.415595267e-15
1.028963101e-13
1.322589907e-13
1.183815278e-13
1.254048779e-13
1.329359401e-13
1.352206443e-13
1.518059048e-13
1.606062471e-13
1.700835389e-13
1.895458344e-13
2.085004178e-13
2.250856783e-13
2.477634835e-13
2.741645104e-13
3.107197785e-13
3.5472149e-13
1.225278429e-12
-0
0
0
0
0
0
0
0
0
0
0
0
0
0
0
0
1.149460095e-12
2.924421444e-13
2.721336622e-13
2.355783941e-13
2.085004178e-13
1.885304102e-13
1.631448074e-13
1.479134457e-13
1.289588623e-13
1.159275862e-13
1.08142668e-13
9.951156303e-14
8.808804177e-14
7.24335867e-14
6.934500502e-14
6.168701484e-14
5.872536118e-14
5.053850427e-14
4.438249559e-14
4.076504719e-14
3.667161873e-14
2.914055656e-14
3.615332934e-14
2.621063491e-14
2.52745408e-14
2.059407028e-14
2.04618536e-14
1.908151145e-14
1.759010728e-14
5.574255285e-15
1.452268028e-14
1.32309233e-14
6.433663713e-15
6.249221443e-15
7.234896802e-15
1.431245575e-16
1.41075199e-15
7.984895927e-15
6.879564471e-15
6.219968502e-16
3.58803019e-15
5.415595267e-15
7.040273847e-14
9.354594637e-14
8.516869744e-14
8.618412156e-14
9.358825571e-14
9.688838408e-14
1.048425396e-13
1.116966524e-13
1.223586056e-13
1.296358117e-13
1.47574971e-13
1.641602315e-13
1.790531185e-13
2.078234684e-13
2.308397483e-13
2.626563705e-13
8.90188472e-13
-0
0
0
0
0
0
0
0
0
0
0
0
0
0
0
0
8.651413439e-13
1.360668311e-13
1.92253632e-13
1.705912509e-13
1.448671734e-13
1.336975082e-13
1.120351271e-13
1.057733451e-13
9.003427132e-14
7.988003019e-14
7.480290963e-14
5.999464132e-14
5.677913163e-14
4.768262395e-14
3.99400151e-14
3.795147621e-14
3.198585955e-14
2.934152592e-14
2.576638686e-14
2.096427699e-14
2.19479691e-14
1.311589479e-14
1.334859615e-14
1.23225947e-14
6.468040051e-15
7.745253192e-15
7.049793448e-15
4.352573149e-15
1.252620839e-14
-1.266635807e-15
2.939176826e-15
3.074037841e-15
3.304094866e-15
1.10797579e-15
5.212642661e-15
-1.588583426e-15
1.204328696e-15
1.974325594e-15
-3.044289088e-16
-5.16967224e-16
-6.9715377e-15
0
5.415595267e-14
4.345169015e-14
3.240895293e-14
4.497482632e-14
4.57363944e-14
5.326745657e-14
5.288667253e-14
6.278705763e-14
6.828727157e-14
7.903384343e-14
8.935732191e-14
9.511139188e-14
1.076349559e-13
1.272664888e-13
1.367437805e-13
4.237703297e-13
-0
0
0
0
0
0
0
0
0
0
0
0
0
0
0
0
0
0
3.296743619e-13
1.0865038e-13
9.409596777e-14
8.05569796e-14
7.412596022e-14
6.447943115e-14
5.127891769e-14
4.696336521e-14
3.723221746e-14
3.105505411e-14
2.420094135e-14
2.115466901e-14
1.2015852e-14
1.876419141e-14
1.004846778e-14
6.811803422e-15
6.801226087e-15
2.549137616e-15
-1.142352127e-15
-1.824590202e-15
2.993385665e-15
3.278973697e-15
-2.599379955e-15
9.784034418e-16
-5.854554649e-15
-5.394440598e-16
-1.118553124e-15
-4.945564965e-15
-7.329431729e-15
-7.261340138e-15
-7.245804678e-15
-1.02507593e-14
-1.669896685e-15
-5.285857649e-15
-8.800177038e-15
8.430466143e-16
-4.361167234e-15
-8.800259674e-15
-5.081665511e-15
-3.099427575e-15
-5.415595267e-15
2.707797634e-14
-1.533713503e-14
2.104889567e-15
2.549137616e-15
-2.104889567e-15
2.411632267e-15
7.06565945e-15
1.072541719e-14
1.616216713e-14
1.683911653e-14
2.356630128e-14
3.063196073e-14
3.647064938e-14
3.909382833e-14
4.84018827e-14
9.274206895e-14
-0
0
0
0
0
0
0
0
0
0
0
0
0
0
0
0
0
0
1.534982784e-13
2.470865341e-14
1.430055625e-14
1.463903096e-14
1.184661465e-14
5.923307323e-15
3.300128366e-15
1.480826831e-15
-4.950192549e-15
-5.542523281e-15
-8.948424992e-15
-1.183603731e-14
-1.249183205e-14
-1.315820413e-14
-1.64900645e-14
-1.205287267e-14
-1.485586631e-14
-1.569940874e-14
-1.451474728e-14
-2.035343592e-14
-1.814409518e-14
-1.909076662e-14
-2.113087001e-14
-1.44578941e-14
-1.99799238e-14
-2.200449173e-14
-1.644444974e-14
-1.217137187e-14
-1.565627305e-14
-2.053027573e-14
-1.250059141e-14
-1.910564099e-14
-1.284732965e-14
-1.149669494e-14
-1.122335761e-14
-6.261988616e-15
-8.289035612e-15
-6.149676743e-15
-3.507718885e-16
-1.93677554e-15
0
-5.415595267e-15
-5.421941668e-14
-4.524983702e-14
-3.84380336e-14
-3.930537502e-14
-4.670950918e-14
-3.69360521e-14
-4.529214636e-14
-4.188624464e-14
-4.184393531e-14
-4.260550339e-14
-3.858611628e-14
-4.738645859e-14
-3.587831864e-14
-4.552484771e-14
-2.181469469e-13
-0
0
0
0
0
0
0
0
0
0
0
0
0
0
0
0
0
0
-1.38436154e-13
-4.958654416e-14
-5.517137678e-14
-5.415595267e-14
-4.8063408e-14
-5.1067371e-14
-4.582101308e-14
-4.764031462e-14
-4.816918134e-14
-4.588447709e-14
-4.647680782e-14
-4.435076358e-14
-4.277474074e-14
-4.63181478e-14
-4.403344355e-14
-3.965442706e-14
-3.769762018e-14
-3.469365718e-14
-3.627761302e-14
-3.942701437e-14
-3.524103424e-14
-3.217757373e-14
-3.333182536e-14
-3.054601989e-14
-3.349577405e-14
-3.314539984e-14
-3.15971425e-14
-2.670776963e-14
-2.960728145e-14
-2.084429035e-14
-2.651836923e-14
-2.215406185e-14
-1.949815927e-14
-2.429712899e-14
-1.702802112e-14
-2.050556774e-14
-1.274544017e-14
-1.210125571e-14
-6.41945042e-15
-4.81828575e-15
-5.415595267e-15
-2.707797634e-14
-1.062387478e-13
-8.876499118e-14
-8.732647368e-14
-8.791880442e-14
-9.633836268e-14
-9.062660205e-14
-9.451906115e-14
-9.536524791e-14
-1.034040221e-13
-1.027270727e-13
-1.142352127e-13
-1.130505512e-13
-1.286203876e-13
-1.401285275e-13
-4.088774427e-13
-0
0
0
0
0
0
0
0
0
0
0
0
0
0
0
0
0
0
-3.005655373e-13
-1.279434382e-13
-1.299742864e-13
-1.184661465e-13
-1.123736018e-13
-1.045886836e-13
-9.64652907e-14
-9.138817013e-14
-8.783418574e-14
-8.309553988e-14
-7.971079284e-14
-7.767994461e-14
-7.091045053e-14
-6.629873268e-14
-7.201049332e-14
-6.278705763e-14
-6.141200414e-14
-6.549485526e-14
-5.553100616e-14
-5.190826909e-14
-5.443096337e-14
-5.596467687e-14
-4.568350773e-14
-4.571788407e-14
-4.885670808e-14
-4.339880348e-14
-3.718990812e-14
-4.05535005e-14
-3.910440567e-14
-3.081441975e-14
-3.004293541e-14
-3.578576697e-14
-2.805208274e-14
-2.595810104e-14
-2.694509857e-14
-1.83911751e-14
-1.648543691e-14
-1.117619344e-14
-1.161449174e-14
-8.926154745e-15
0
-5.957154794e-14
-1.496481286e-13
-1.371245645e-13
-1.291280997e-13
-1.368283992e-13
-1.346283136e-13
-1.409747143e-13
-1.465595469e-13
-1.560368386e-13
-1.59083111e-13
-1.692373521e-13
-1.810839667e-13
-1.861610873e-13
-2.051156707e-13
-2.152699119e-13
-6.058697205e-13
-0
0
0
0
0
0
0
0
0
0
0
0
0
0
0
0
0
0
-4.670950918e-13
-2.078234684e-13
-1.976692273e-13
-1.868380367e-13
-1.722836244e-13
-1.553598892e-13
-1.450364107e-13
-1.396208155e-13
-1.287896249e-13
-1.220201309e-13
-1.166045356e-13
-1.05519489e-13
-1.079734306e-13
-9.828459223e-14
-9.464598916e-14
-8.411096399e-14
-8.952655926e-14
-8.311669455e-14
-8.191087842e-14
-7.105853321e-14
-7.105853321e-14
-7.167201861e-14
-6.980511907e-14
-6.483906052e-14
-5.558389283e-14
-5.632695058e-14
-5.238953781e-14
-5.246886782e-14
-5.303607738e-14
-4.12066509e-14
-4.16647817e-14
-3.229128008e-14
-4.185054614e-14
-2.801869802e-14
-2.725481615e-14
-2.73242299e-14
-2.32050192e-14
-1.982770934e-14
-1.02808386e-14
-3.845439541e-15
-5.415595267e-15
-8.123392901e-14
-2.035925346e-13
-1.768530329e-13
-1.724528618e-13
-1.754145155e-13
-1.827763403e-13
-1.861610873e-13
-1.983461767e-13
-2.051156707e-13
-2.152699119e-13
-2.315166977e-13
-2.413324641e-13
-2.61979421e-13
-2.816109539e-13
-2.958268915e-13
-2.003770249e-13
-1.402639174e-12
-0
0
0
0
0
0
0
0
0
0
0
0
0
0
0
0
-1.070933964e-12
-2.924421444e-13
-2.944729927e-13
-2.741645104e-13
-2.457326352e-13
-2.247472036e-13
-2.139160131e-13
-1.949614296e-13
-1.790531185e-13
-1.665295545e-13
-1.584061616e-13
-1.47574971e-13
-1.386053914e-13
-1.303973798e-13
-1.273511075e-13
-1.145736874e-13
-1.133467166e-13
-1.013731739e-13
-1.094754121e-13
-9.377864773e-14
-9.17160675e-14
-9.170549017e-14
-8.353978793e-14
-8.191616708e-14
-7.814005866e-14
-7.115901789e-14
-7.268215406e-14
-6.516431356e-14
-5.806163344e-14
-5.995497631e-14
-5.020796257e-14
-4.930492263e-14
-4.38523067e-14
-4.325336513e-14
-3.594905457e-14
-3.336752387e-14
-3.208171664e-14
-2.761180119e-14
-1.227764103e-14
-1.53356476e-14
-6.272607268e-15
-5.415595267e-15
-1.028963101e-13
-2.457326352e-13
-2.084157991e-13
-2.139160131e-13
-2.216163126e-13
-2.235625421e-13
-2.310089856e-13
-2.447172111e-13
-2.550406896e-13
-2.741645104e-13
-2.836418021e-13
-2.988731638e-13
-3.296743619e-13
-3.560753888e-13
-3.763838711e-13
-4.197086332e-13
-1.00730072e-12
-0
0
0
0
0
0
0
0
0
0
0
0
0
0
0
0
-1.039794291e-12
-3.817994663e-13
-3.675835288e-13
-3.323821595e-13
-3.039502844e-13
-2.819494286e-13
-2.572407752e-13
-2.376092423e-13
-2.22039406e-13
-2.032540599e-13
-1.937767682e-13
-1.823532469e-13
-1.720297684e-13
-1.606908658e-13
-1.506212434e-13
-1.419901384e-13
-1.32682084e-13
-1.304396891e-13
-1.187200025e-13
-1.191854052e-13
-1.096023402e-13
-1.050646636e-13
-1.012885552e-13
-9.286899696e-14
-9.742253947e-14
-8.86962385e-14
-8.157240371e-14
-7.836218269e-14
-7.006426377e-14
-7.116430656e-14
-6.230050024e-14
-5.74375707e-14
-5.828375746e-14
-4.459139794e-14
-4.370157968e-14
-3.511212298e-14
-3.099985365e-14
-3.276924338e-14
-2.216050742e-14
-1.914183531e-14
-5.811666863e-15
-5.415595267e-15
-1.408054769e-13
-2.908343896e-13
-2.547022149e-13
-2.496250943e-13
-2.565638258e-13
-2.692566272e-13
-2.733183236e-13
-2.819494286e-13
-3.014117241e-13
-3.232433425e-13
-3.313667354e-13
-3.631833576e-13
-3.838303146e-13
-4.258011779e-13
-4.549100024e-13
-5.131276516e-13
-2.937960432e-13
-2.137806232e-12
-0
0
0
0
0
0
0
0
0
0
0
0
0
0
-2.04844891e-12
-4.684489906e-13
-4.684489906e-13
-4.271550767e-13
-3.899228592e-13
-3.608140347e-13
-3.289974125e-13
-3.002270626e-13
-2.799185804e-13
-2.579177246e-13
-2.4031704e-13
-2.267780518e-13
-2.044387213e-13
-1.974153712e-13
-1.852302819e-13
-1.692373521e-13
-1.662333891e-13
-1.549791052e-13
-1.46940331e-13
-1.399169808e-13
-1.360245217e-13
-1.272030248e-13
-1.163083702e-13
-1.188257758e-13
-1.107129603e-13
-9.905673765e-14
-1.009447919e-13
-9.689367274e-14
-8.661779227e-14
-8.080025829e-14
-7.45887186e-14
-6.649176904e-14
-6.085537191e-14
-5.906780238e-14
-5.338380725e-14
-4.549840438e-14
-5.000963755e-14
-3.411884516e-14
-3.108711666e-14
-2.615312065e-14
-1.462878416e-14
-1.368161691e-14
0
-1.62467858e-13
-3.223125371e-13
-2.799185804e-13
-2.872804052e-13
-2.902420588e-13
-2.998885879e-13
-3.166430858e-13
-3.284897004e-13
-3.425364006e-13
-3.63860307e-13
-3.851842134e-13
-4.004155751e-13
-4.434018625e-13
-4.8063408e-13
-5.266666397e-13
-5.388517291e-13
-5.672836042e-13
-2.235286947e-12
-0
0
0
0
0
0
0
0
0
0
0
0
0
0
-1.463564621e-12
-5.483290208e-13
-5.266666397e-13
-4.799571306e-13
-4.406940649e-13
-4.007540498e-13
-3.750299723e-13
-3.388131789e-13
-3.154584243e-13
-2.944729927e-13
-2.729798489e-13
-2.514867052e-13
-2.404016587e-13
-2.205162698e-13
-2.046925774e-13
-1.989385074e-13
-1.823955562e-13
-1.703797042e-13
-1.650487276e-13
-1.559945293e-13
-1.460095255e-13
-1.423497678e-13
-1.392611861e-13
-1.23479803e-13
-1.206768094e-13
-1.187623118e-13
-1.069844499e-13
-9.632778535e-14
-9.737494146e-14
-8.787913941e-14
-8.019206156e-14
-7.984300952e-14
-7.490736081e-14
-6.116079245e-14
-5.856670116e-14
-4.980271844e-14
-5.050016143e-14
-4.303520761e-14
-3.419652246e-14
-2.610552264e-14
-1.845513492e-14
-1.079697947e-14
-1.083119053e-14
-1.787146438e-13
-3.559907701e-13
-3.086043116e-13
-3.207047822e-13
-3.224817744e-13
-3.362746186e-13
-3.459211477e-13
-3.591216612e-13
-3.794301434e-13
-4.021079486e-13
-4.23431855e-13
-4.50848306e-13
-4.762339088e-13
-5.151584998e-13
-5.909768335e-13
-6.363324439e-13
-5.429134255e-13
-2.978577397e-13
-3.904644188e-12
-0
0
0
0
0
0
0
0
0
0
-0
0
-2.659057276e-12
-6.092544676e-13
-6.200856581e-13
-5.754069971e-13
-5.246357915e-13
-4.765723835e-13
-4.430633878e-13
-4.098928668e-13
-3.757069217e-13
-3.472750465e-13
-3.207047822e-13
-2.981962144e-13
-2.79749343e-13
-2.613870903e-13
-2.422632695e-13
-2.265241958e-13
-2.091773672e-13
-1.998693128e-13
-1.954268323e-13
-1.767684143e-13
-1.7416639e-13
-1.631236528e-13
-1.522289982e-13
-1.459037522e-13
-1.352206443e-13
-1.311272159e-13
-1.212638514e-13
-1.17662269e-13
-1.08634514e-13
-1.08586916e-13
-1.001382701e-13
-8.990998764e-14
-7.749616343e-14
-7.337496947e-14
-7.343975564e-14
-6.443315531e-14
-6.178353302e-14
-4.975842585e-14
-4.417127944e-14
-3.442657948e-14
-2.781673704e-14
-1.985944135e-14
-1.112305886e-14
-5.415595267e-15
-2.057926202e-13
-3.822225597e-13
-3.367823307e-13
-3.454134356e-13
-3.42959494e-13
-3.660603926e-13
-3.687681902e-13
-3.943230304e-13
-4.129391391e-13
-4.362938937e-13
-4.576178001e-13
-4.89772897e-13
-5.11435278e-13
-5.449442738e-13
-5.821764912e-13
-6.586717744e-13
-7.256897658e-13
-8.069236948e-13
-2.829648527e-13
-2.030848225e-12
-3.712390556e-12
-0
0
0
0
-0
-0
-0
0
-3.248003261e-12
-1.816932212e-12
-6.904883966e-13
-7.067351824e-13
-6.640873696e-13
-6.079005687e-13
-5.578063125e-13
-5.192201962e-13
-4.802956053e-13
-4.352784696e-13
-4.048157462e-13
-3.773992952e-13
-3.411825018e-13
-3.196893581e-13
-2.974346463e-13
-2.758568839e-13
-2.5884853e-13
-2.422632695e-13
-2.257203184e-13
-2.183161842e-13
-2.058772388e-13
-1.91999776e-13
-1.827763403e-13
-1.76979961e-13
-1.672170812e-13
-1.579830682e-13
-1.523453489e-13
-1.417891691e-13
-1.314762679e-13
-1.256164246e-13
-1.207244074e-13
-1.082801733e-13
-1.073335019e-13
-9.150187648e-14
-8.786723991e-14
-8.20311956e-14
-6.938599219e-14
-6.503209688e-14
-5.947569084e-14
-5.602814088e-14
-4.799895236e-14
-3.901482887e-14
-3.035529732e-14
-1.920744784e-14
-8.570285284e-15
-1.083119053e-14
-2.112082154e-13
-4.071004505e-13
-3.669065794e-13
-3.60729416e-13
-3.737606921e-13
-3.795147621e-13
-3.983847268e-13
-4.136160885e-13
-4.39340166e-13
-4.538945783e-13
-4.946807802e-13
-5.222664686e-13
-5.571293631e-13
-5.9503853e-13
-6.200856581e-13
-6.160239616e-13
-6.322707474e-13
-8.807111803e-13
-9.964695292e-13
-8.590487993e-13
-4.278320261e-13
-2.207532021e-12
-2.317197825e-12
-2.363907334e-12
-2.423182717e-12
-2.424409687e-12
-2.363230385e-12
-2.314490027e-12
-2.165561157e-12
-8.150470877e-13
-8.2384743e-13
-7.94061656e-13
-7.399057034e-13
-6.843958519e-13
-6.329476968e-13
-5.869151371e-13
-5.402056279e-13
-4.962039164e-13
-4.630333953e-13
-4.217394814e-13
-3.889074351e-13
-3.669065794e-13
-3.399978404e-13
-3.15289187e-13
-2.97265409e-13
-2.753491719e-13
-2.549137616e-13
-2.393439252e-13
-2.303320362e-13
-2.156083866e-13
-2.04079092e-13
-1.900535464e-13
-1.824801749e-13
-1.716172524e-13
-1.689940734e-13
-1.56618592e-13
-1.496798606e-13
-1.413713643e-13
-1.347552416e-13
-1.270919628e-13
-1.157160395e-13
-1.07991941e-13
-1.007649772e-13
-9.382889007e-14
-8.7210123e-14
-7.7381796e-14
-7.011715044e-14
-6.382892508e-14
-5.585890353e-14
-4.67048816e-14
-3.621514064e-14
-2.821189965e-14
-1.946923687e-14
-1.445301861e-14
-5.415595267e-15
-2.22039406e-13
-4.314283198e-13
-3.752415189e-13
-3.726606493e-13
-3.907267367e-13
-4.002040284e-13
-4.096390108e-13
-4.406094462e-13
-4.50848306e-13
-4.821572161e-13
-5.063581575e-13
-5.388517291e-13
-5.754069971e-13
-6.248243039e-13
-6.938731436e-13
-7.06058233e-13
-6.43101938e-13
-7.087660306e-13
-8.908654214e-13
-9.138817013e-13
-9.578834129e-13
-9.673607046e-13
-9.910539339e-13
-1.023547505e-12
-1.031501661e-12
-1.023082103e-12
-1.003239023e-12
-9.71422401e-13
-9.220050942e-13
-9.077891567e-13
-8.68526091e-13
-8.109853913e-13
-7.524292674e-13
-7.104584041e-13
-6.515638056e-13
-6.048542964e-13
-5.56113939e-13
-5.136353636e-13
-4.758954341e-13
-4.430633878e-13
-4.043080342e-13
-3.750299723e-13
-3.542983966e-13
-3.292512685e-13
-3.032310256e-13
-2.839802768e-13
-2.698489579e-13
-2.542791215e-13
-2.31876327e-13
-2.256356997e-13
-2.104466473e-13
-2.04269484e-13
-1.871553568e-13
-1.794550572e-13
-1.748221847e-13
-1.643453349e-13
-1.488706945e-13
-1.50126753e-13
-1.315450206e-13
-1.329359401e-13
-1.262047888e-13
-1.090285198e-13
-9.661337338e-14
-9.77001945e-14
-8.777865473e-14
-7.901665526e-14
-7.088268503e-14
-6.380545662e-14
-5.620696394e-14
-4.625402271e-14
-3.286741427e-14
-3.458871019e-14
-1.960508951e-14
-1.300061837e-14
-1.083119053e-14
-2.43701787e-13
-4.352573149e-13
-3.881881764e-13
-3.869400509e-13
-3.974750761e-13
-4.130660671e-13
-4.312167731e-13
-4.470827749e-13
-4.654027183e-13
-4.915075798e-13
-5.216741378e-13
-5.466366473e-13
-5.818380165e-13
-6.194087087e-13
-6.865959375e-13
-7.593679989e-13
-7.444751119e-13
-7.583525748e-13
-8.549871028e-13
-9.125278025e-13
-9.616066346e-13
-9.897000351e-13
-1.026255303e-12
-1.046563785e-12
-1.059716701e-12
-1.053201063e-12
-1.041486665e-12
-1.003915973e-12
-9.683761287e-13
-9.220050942e-13
-8.790188068e-13
-8.143701383e-13
-7.703684268e-13
-7.145201006e-13
-6.656105058e-13
-6.087467555e-13
-5.718530127e-13
-5.270051144e-13
-4.827495469e-13
-4.494944072e-13
-4.137853259e-13
-3.883997231e-13
-3.640295444e-13
-3.345822451e-13
-3.119467493e-13
-2.961230568e-13
-2.73741417e-13
-2.576427139e-13
-2.361284155e-13
-2.304589642e-13
-2.154391492e-13
-2.04618536e-13
-1.901857631e-13
-1.80174316e-13
-1.748248291e-13
-1.664317141e-13
-1.601699321e-13
-1.488627615e-13
-1.402845432e-13
-1.282448922e-13
-1.26452034e-13
-1.138365794e-13
-1.023026572e-13
-9.449195673e-14
-8.966737003e-14
-8.120880784e-14
-7.114315189e-14
-6.28779566e-14
-5.516707974e-14
-4.832850244e-14
-3.877907e-14
-3.342140216e-14
-2.139022129e-14
-2.136408784e-14
0
-2.43701787e-13
-2.003770249e-13
-1.949614296e-13
-2.003770249e-13
-2.112082154e-13
-2.166238107e-13
-2.166238107e-13
-2.274550012e-13
-2.491173823e-13
-2.599485728e-13
-2.816109539e-13
-2.870265492e-13
-3.03273335e-13
-3.141045255e-13
-3.574292876e-13
-4.115852403e-13
-4.332476214e-13
-4.278320261e-13
-4.386632166e-13
-4.711567882e-13
-4.928191693e-13
-5.198971456e-13
-5.307283362e-13
-5.307283362e-13
-5.307283362e-13
-5.307283362e-13
-5.090659551e-13
-4.87403574e-13
-4.65741193e-13
-4.440788119e-13
-4.115852403e-13
-3.899228592e-13
-3.628448829e-13
-3.303513113e-13
-3.086889302e-13
-2.924421444e-13
-2.599485728e-13
-2.491173823e-13
-2.274550012e-13
-2.112082154e-13
-1.949614296e-13
-1.841302391e-13
-1.678834533e-13
-1.516366675e-13
-1.462210722e-13
-1.353898817e-13
-1.245586911e-13
-1.191430959e-13
-1.137275006e-13
-1.028963101e-13
-1.028963101e-13
-9.748071481e-14
-9.748071481e-14
-8.664952427e-14
-8.664952427e-14
-8.123392901e-14
-7.040273847e-14
-7.040273847e-14
-6.498714321e-14
-5.957154794e-14
-5.957154794e-14
-5.415595267e-14
-4.87403574e-14
-4.332476214e-14
-4.332476214e-14
-3.790916687e-14
-3.24935716e-14
-2.707797634e-14
-2.166238107e-14
-2.166238107e-14
-1.62467858e-14
-1.083119053e-14
-1.083119053e-14
0
-5.415595267e-15
1.431062078e-14
6.73439438e-12
5.126935528e-12
4.641253731e-12
4.340738161e-12
4.067336775e-12
3.838746943e-12
3.58841296e-12
1.633107257e-11
-0
5.480967917e-12
7.532244532e-12
6.126688132e-12
5.518341209e-12
5.095144671e-12
4.710131276e-12
4.347752186e-12
4.045859488e-12
1.483755589e-11
-0
3.806625336e-12
6.274616809e-12
5.075666427e-12
4.616890443e-12
4.329132144e-12
4.034089008e-12
3.775121495e-12
3.54775125e-12
1.436900191e-11
-0
3.735072304e-12
6.125865252e-12
4.973127839e-12
4.53161816e-12
4.213069708e-12
3.92326247e-12
3.700891668e-12
3.466427513e-12
1.407615572e-11
-0
3.66351927e-12
5.909499241e-12
4.780867848e-12
4.348891714e-12
4.085401012e-12
3.790270606e-12
3.573640446e-12
3.344441865e-12
1.307071623e-11
-0
3.52041311e-12
5.666087493e-12
4.601425138e-12
4.19052879e-12
3.888094783e-12
3.66836138e-12
3.456993475e-12
3.334276435e-12
1.207503834e-11
-0
3.405928182e-12
5.382107061e-12
4.370713054e-12
3.995620522e-12
3.679182271e-12
3.435625496e-12
3.27672088e-12
3.405434825e-12
1.260216222e-11
-0
3.219890101e-12
5.071080822e-12
4.127183667e-12
3.751985162e-12
3.493482256e-12
3.180724288e-12
2.916175567e-12
2.724347891e-12
8.121610432e-12
-0
3.033852039e-12
4.733008779e-12
3.819567506e-12
3.459622689e-12
3.261357218e-12
3.213972303e-12
3.510014966e-12
4.411817141e-12
1.037652878e-11
-0
2.833503333e-12
4.421982502e-12
3.614490064e-12
3.228169075e-12
2.866744612e-12
2.42710323e-12
2.051927184e-12
2.444797292e-12
9.380850591e-12
-0
2.590222744e-12
3.867544329e-12
3.14024846e-12
2.850534202e-12
2.715863317e-12
2.704169809e-12
2.953290546e-12
3.918791501e-12
9.449181449e-12
-0
2.490048371e-12
3.671462524e-12
3.037709728e-12
2.649534982e-12
2.234203788e-12
1.690106125e-12
1.293721528e-12
1.987350809e-12
1.077675238e-11
-0
2.08935091e-12
3.042648493e-12
2.525016095e-12
2.381536036e-12
2.309644415e-12
2.150036627e-12
1.845143813e-12
1.977185316e-12
6.34500815e-12
-0
1.931934053e-12
2.765429382e-12
2.255851899e-12
2.034355571e-12
1.793166123e-12
1.523866147e-12
1.21949159e-12
1.316429283e-12
6.198584828e-12
-0