/*--------------------------------*- C++ -*----------------------------------*\
| =========                 |                                                 |
| \\      /  F ield         | OpenFOAM Extend Project: Open source CFD        |
|  \\    /   O peration     | Version:  1.6-ext                               |
|   \\  /    A nd           | Web:      www.extend-project.de                 |
|    \\/     M anipulation  |                                                 |
\*---------------------------------------------------------------------------*/
FoamFile
{
    version     2.0;
    format      ascii;
    class       volScalarField;
    location    "0";
    object      divFlux;
}
// * * * * * * * * * * * * * * * * * * * * * * * * * * * * * * * * * * * * * //

dimensions      [0 0 -1 0 0 0 0];

internalField   nonuniform List<scalar> 
2675
(
5.415595267e-15
5.74010789e-13
4.732087911e-13
4.729972444e-13
4.973462685e-13
5.301994695e-13
5.708375886e-13
5.941923432e-13
6.27955195e-13
6.384479108e-13
6.51986899e-13
6.466559224e-13
6.370093933e-13
6.158547243e-13
5.852227636e-13
5.554369896e-13
5.187124842e-13
4.808033173e-13
4.349399949e-13
3.84507264e-13
3.405055524e-13
2.690873898e-13
1.890381223e-13
8.698799898e-14
-2.760684306e-14
-1.577027688e-13
-2.829648527e-13
-4.134468512e-13
-5.35466982e-13
-6.288860004e-13
-7.040273847e-13
-7.679991038e-13
-8.448328617e-13
-8.77664908e-13
-8.138624262e-13
-7.588602868e-13
-7.832304655e-13
-8.191087842e-13
-8.224935312e-13
-8.0531594e-13
-8.009157688e-13
-7.889845355e-13
-7.883922048e-13
-7.835689402e-13
-7.737108645e-13
-7.625411992e-13
-7.462309494e-13
-7.185606423e-13
-6.932808129e-13
-6.600256732e-13
-6.261147388e-13
-5.83324132e-13
-5.518512732e-13
-5.158460265e-13
-4.791664748e-13
-4.477861677e-13
-4.275252834e-13
-3.969938074e-13
-3.823283331e-13
-3.60324833e-13
-3.505150163e-13
-3.251585011e-13
-3.116109189e-13
-2.897710369e-13
-2.637884758e-13
-2.340109654e-13
-2.093269373e-13
-1.78581105e-13
-1.47907496e-13
-1.1796488e-13
-9.250920232e-14
-6.152790033e-14
-4.925790308e-14
-2.530468207e-14
-1.62467858e-14
5.902998841e-13
9.432443819e-13
8.665375521e-13
8.937847658e-13
9.503523507e-13
1.01364712e-12
1.062133622e-12
1.104273722e-12
1.136513438e-12
1.146159967e-12
1.13896738e-12
1.116289574e-12
1.078549645e-12
1.020839708e-12
9.754840975e-13
9.023735614e-13
8.296015e-13
7.605526603e-13
6.776263578e-13
5.740530983e-13
4.494944072e-13
3.086889302e-13
1.374207299e-13
-5.550985149e-14
-2.768511534e-13
-5.231126553e-13
-7.378748552e-13
-9.612681599e-13
-1.134567208e-12
-1.274018787e-12
-1.385715439e-12
-1.40737782e-12
-1.437502069e-12
-1.508920231e-12
-1.541075328e-12
-1.478119033e-12
-1.442917664e-12
-1.431071049e-12
-1.421593758e-12
-1.416516637e-12
-1.411608754e-12
-1.402469937e-12
-1.389607898e-12
-1.372007213e-12
-1.348187056e-12
-1.317555095e-12
-1.271480226e-12
-1.21626654e-12
-1.164331828e-12
-1.103342917e-12
-1.031311269e-12
-9.778534204e-13
-9.051659777e-13
-8.53347616e-13
-8.02438905e-13
-7.507580486e-13
-7.124416543e-13
-6.743368068e-13
-6.348198851e-13
-6.095056793e-13
-5.732597982e-13
-5.410980905e-13
-5.092061048e-13
-4.571603304e-13
-4.187447736e-13
-3.664662978e-13
-3.050113232e-13
-2.570748433e-13
-2.082559822e-13
-1.55176108e-13
-1.187685921e-13
-8.361630833e-14
-5.123917005e-14
-2.345114881e-14
-1.62467858e-14
4.711567882e-13
7.834420122e-13
7.187933437e-13
7.533600729e-13
7.938078e-13
8.438174376e-13
8.957733047e-13
9.268283588e-13
9.504369694e-13
9.568679888e-13
9.573757008e-13
9.379134053e-13
8.996657638e-13
8.573564257e-13
8.20462683e-13
7.751070726e-13
7.162124741e-13
6.681490661e-13
6.079005687e-13
5.35466982e-13
4.50848306e-13
3.465980971e-13
2.064695696e-13
2.504712811e-14
-1.821417002e-13
-4.0841204e-13
-6.173778605e-13
-8.20462683e-13
-9.836074904e-13
-1.088534649e-12
-1.186015364e-12
-1.198877402e-12
-1.303804561e-12
-1.358637463e-12
-1.329528638e-12
-1.277065059e-12
-1.260818273e-12
-1.232047923e-12
-1.229001651e-12
-1.214785713e-12
-1.209200881e-12
-1.205646896e-12
-1.1938849e-12
-1.188892398e-12
-1.159868193e-12
-1.133001763e-12
-1.095134905e-12
-1.051133194e-12
-9.9833114e-13
-9.431809179e-13
-8.86676797e-13
-8.328170097e-13
-7.75149382e-13
-7.327765799e-13
-6.843006559e-13
-6.394210256e-13
-6.074140114e-13
-5.756872965e-13
-5.55828351e-13
-5.219041949e-13
-4.971770311e-13
-4.719434775e-13
-4.35503238e-13
-4.022216549e-13
-3.666791667e-13
-3.071241458e-13
-2.715353817e-13
-2.317639429e-13
-1.782902283e-13
-1.397996385e-13
-1.02832185e-13
-7.218518461e-14
-5.059651434e-14
-2.454912572e-14
-1.083119053e-14
4.386632166e-13
7.222204001e-13
6.656105058e-13
6.951424237e-13
7.401595594e-13
7.767148275e-13
8.325631536e-13
8.634489704e-13
8.813881297e-13
8.876499118e-13
8.790188068e-13
8.580333751e-13
8.431404882e-13
8.001542007e-13
7.642758821e-13
7.256897658e-13
7.006426377e-13
6.593487238e-13
6.187317593e-13
5.713453007e-13
5.117737527e-13
1.416178162e-12
6.28209051e-13
2.382861918e-13
-4.495790259e-13
-8.89426904e-13
-1.621970783e-12
-1.972630576e-12
-2.58594674e-12
-5.889459853e-13
-1.165706881e-12
-8.678491416e-13
-1.033024797e-12
-1.369468653e-12
-1.359991361e-12
-1.253033355e-12
-1.21884741e-12
-1.205646896e-12
-1.187369262e-12
-1.182292142e-12
-1.173153325e-12
-1.160629761e-12
-1.150983232e-12
-1.13575187e-12
-1.110873979e-12
-1.089211598e-12
-1.050710101e-12
-1.003069786e-12
-9.569526074e-13
-9.069852792e-13
-8.464194619e-13
-7.947597601e-13
-7.458290107e-13
-6.994262442e-13
-6.534783031e-13
-6.194933274e-13
-5.847785155e-13
-5.560293203e-13
-5.275339812e-13
-5.087803671e-13
-4.769637449e-13
-4.581070018e-13
-4.194415555e-13
-3.829510736e-13
-3.454729331e-13
-3.006534614e-13
-2.564725963e-13
-2.134030123e-13
-1.697893567e-13
-1.330460105e-13
-9.851464926e-14
-7.239590494e-14
-5.034968232e-14
-1.918918541e-14
-1.62467858e-14
4.06169645e-13
6.557947394e-13
6.036696349e-13
6.389556228e-13
6.821111476e-13
7.153662873e-13
7.520907927e-13
7.852613137e-13
8.028619984e-13
7.967694537e-13
8.001542007e-13
7.78153345e-13
7.63260458e-13
7.250128164e-13
7.0944298e-13
6.871036495e-13
6.701799143e-13
6.512253309e-13
6.444558368e-13
1.892750546e-12
2.493881621e-12
-0
0
0
0
-0
-0
-0
0
-4.727814668e-12
-4.301336541e-12
-7.60891135e-13
-6.200856581e-13
-1.030317e-12
-1.301773712e-12
-1.255064203e-12
-1.205646896e-12
-1.173153325e-12
-1.153183317e-12
-1.146413823e-12
-1.132874835e-12
-1.122043644e-12
-1.10376601e-12
-1.089211598e-12
-1.070087777e-12
-1.043348276e-12
-1.002900549e-12
-9.605065918e-13
-9.10581573e-13
-8.63025877e-13
-8.119161967e-13
-7.593468442e-13
-7.094641347e-13
-6.693548822e-13
-6.243165919e-13
-5.920768763e-13
-5.585573033e-13
-5.308076662e-13
-5.05062434e-13
-4.858301955e-13
-4.606482064e-13
-4.320180062e-13
-4.079506037e-13
-3.632468216e-13
-3.282094011e-13
-2.84314785e-13
-2.497083909e-13
-2.082075578e-13
-1.682130034e-13
-1.270364318e-13
-9.811601596e-14
-7.396432533e-14
-4.532156457e-14
-2.657960208e-14
-1.62467858e-14
3.790916687e-13
5.721914874e-13
5.430826629e-13
5.599217794e-13
5.932615378e-13
6.305783739e-13
6.662874552e-13
6.835496651e-13
7.013195871e-13
7.043658594e-13
6.931961942e-13
6.79657206e-13
6.573178756e-13
6.43101938e-13
6.295629498e-13
6.349785451e-13
6.336246463e-13
6.458097356e-13
3.214155791e-12
-0
0
0
0
0
0
0
0
0
0
-0
0
-6.929254144e-12
-7.717223256e-13
-1.00730072e-12
-1.123736018e-12
-1.140659753e-12
-1.146752298e-12
-1.127120765e-12
-1.108843131e-12
-1.090565497e-12
-1.082103629e-12
-1.06991854e-12
-1.053671754e-12
-1.039963529e-12
-1.01178551e-12
-9.819997356e-13
-9.522985803e-13
-9.110046663e-13
-8.662413867e-13
-8.142009009e-13
-7.676817838e-13
-7.238916189e-13
-6.682759941e-13
-6.25458944e-13
-5.98550205e-13
-5.588111593e-13
-5.344409806e-13
-5.049407947e-13
-4.768685489e-13
-4.584481208e-13
-4.345909429e-13
-4.098294028e-13
-3.800171855e-13
-3.476214542e-13
-3.079154626e-13
-2.732244498e-13
-2.331251136e-13
-1.943981866e-13
-1.621502074e-13
-1.229264762e-13
-9.456665915e-14
-6.215307864e-14
-4.414351394e-14
-2.383230472e-14
-1.083119053e-14
3.303513113e-13
4.75387722e-13
4.430633878e-13
4.7488001e-13
5.053427334e-13
5.32082235e-13
5.523907173e-13
5.733761489e-13
5.757454718e-13
5.781147948e-13
5.676220789e-13
5.578063125e-13
5.46975122e-13
5.347900326e-13
5.402056279e-13
5.523907173e-13
5.848842889e-13
1.902227838e-12
-0
0
0
0
0
0
0
0
0
0
0
0
0
0
-3.206032398e-12
-1.380976793e-12
-1.234755721e-12
-1.104781435e-12
-1.077703458e-12
-1.060102774e-12
-1.045548361e-12
-1.033701747e-12
-1.016778011e-12
-1.00662377e-12
-9.83438253e-13
-9.77176471e-13
-9.476445531e-13
-9.185357285e-13
-8.922193203e-13
-8.475406593e-13
-8.035389478e-13
-7.574217693e-13
-7.124680977e-13
-6.656528151e-13
-6.281667417e-13
-5.900037188e-13
-5.469539673e-13
-5.186701748e-13
-4.933374587e-13
-4.742665246e-13
-4.481087764e-13
-4.233419476e-13
-4.053208139e-13
-3.800753608e-13
-3.527276624e-13
-3.215311365e-13
-2.887665207e-13
-2.564329313e-13
-2.181198424e-13
-1.812241164e-13
-1.470946939e-13
-1.127947119e-13
-9.54888705e-14
-6.811968693e-14
-5.085598958e-14
-2.948324568e-14
-1.083119053e-14
2.707797634e-13
3.597986106e-13
3.496443694e-13
3.613217467e-13
3.913613767e-13
4.064235011e-13
4.312167731e-13
4.318937226e-13
4.356169443e-13
4.332476214e-13
4.271550767e-13
4.102313415e-13
4.088774427e-13
4.082004933e-13
4.230933802e-13
4.549100024e-13
5.02296461e-13
2.39098531e-12
-0
0
0
0
0
0
0
0
0
0
0
0
0
0
-4.364969785e-12
-5.46975122e-13
-1.198200453e-12
-1.089888548e-12
-1.028286151e-12
-9.937617315e-13
-9.68037654e-13
-9.504369694e-13
-9.389288294e-13
-9.26236028e-13
-9.064352578e-13
-8.996657638e-13
-8.69033803e-13
-8.433097255e-13
-8.132700955e-13
-7.767148275e-13
-7.424019543e-13
-6.934500502e-13
-6.518599709e-13
-6.109891504e-13
-5.783898055e-13
-5.367785715e-13
-5.005512008e-13
-4.793542225e-13
-4.470880636e-13
-4.3325291e-13
-4.049691176e-13
-3.922102078e-13
-3.723353963e-13
-3.492212761e-13
-3.20449604e-13
-3.001688873e-13
-2.626656256e-13
-2.303525298e-13
-2.003889244e-13
-1.659537508e-13
-1.422585383e-13
-1.122665063e-13
-8.133573585e-14
-6.243354328e-14
-4.526487666e-14
-3.166498619e-14
-1.62467858e-14
2.057926202e-13
2.31305151e-13
2.284704253e-13
2.470019154e-13
2.618101837e-13
2.744183664e-13
2.79241631e-13
2.851649383e-13
2.822879033e-13
2.717951875e-13
2.636717946e-13
2.613024716e-13
2.55209927e-13
2.599485728e-13
2.836418021e-13
3.276435137e-13
1.337652031e-12
-0
0
0
0
0
0
0
0
0
0
0
0
0
0
0
0
-2.602193526e-12
-9.788688445e-13
-9.707454516e-13
-9.287745883e-13
-9.044044096e-13
-8.793572815e-13
-8.590487993e-13
-8.485560834e-13
-8.341709085e-13
-8.219858191e-13
-8.025235237e-13
-7.903384343e-13
-7.591987615e-13
-7.325015692e-13
-7.034773633e-13
-6.623949961e-13
-6.257762641e-13
-5.909979882e-13
-5.492386716e-13
-5.087063257e-13
-4.883978435e-13
-4.510915847e-13
-4.198567159e-13
-3.978928808e-13
-3.817201363e-13
-3.642490241e-13
-3.51352609e-13
-3.24777056e-13
-3.102768526e-13
-2.7828306e-13
-2.612866056e-13
-2.309190783e-13
-2.071048707e-13
-1.78477976e-13
-1.501132008e-13
-1.294831014e-13
-1.014987798e-13
-8.193071092e-14
-5.740683032e-14
-4.739025982e-14
-2.717015615e-14
-1.083119053e-14
1.462210722e-13
8.157240371e-14
9.976541906e-14
1.054771797e-13
1.171968663e-13
1.239663604e-13
1.256587339e-13
1.228663176e-13
1.100042789e-13
1.015424113e-13
9.477291718e-14
8.800342309e-14
8.394172664e-14
9.477291718e-14
1.204969947e-13
1.658526051e-13
3.926306569e-13
-0
0
0
0
0
0
0
0
0
0
0
0
0
0
0
0
-3.656880704e-12
-4.826649282e-13
-8.428020135e-13
-8.136931889e-13
-7.852613137e-13
-7.70029952e-13
-7.527677421e-13
-7.431212131e-13
-7.338131587e-13
-7.24335867e-13
-7.108814975e-13
-6.883729297e-13
-6.740723734e-13
-6.406479964e-13
-6.186471406e-13
-5.855400836e-13
-5.46721266e-13
-5.180143801e-13
-4.875833887e-13
-4.487963031e-13
-4.279589541e-13
-3.896637145e-13
-3.719413906e-13
-3.489145334e-13
-3.303301566e-13
-3.183195933e-13
-2.89015088e-13
-2.842447102e-13
-2.604695065e-13
-2.477872825e-13
-2.251081551e-13
-1.987177055e-13
-1.749041591e-13
-1.610514868e-13
-1.337451062e-13
-1.133222565e-13
-9.323457609e-14
-8.096007521e-14
-5.401117541e-14
-3.709826544e-14
-2.880675076e-14
-1.62467858e-14
5.957154794e-14
-7.044504781e-14
-4.393824754e-14
-3.926306569e-14
-3.321283035e-14
-3.676681474e-14
-4.290166876e-14
-5.339438459e-14
-6.625642335e-14
-7.66645205e-14
-8.935732191e-14
-9.748071481e-14
-9.274206895e-14
-9.206511954e-14
-6.634104202e-14
-1.238817417e-13
-0
0
0
0
0
0
0
0
0
0
0
0
0
0
0
0
0
0
-1.77360745e-12
-6.871036495e-13
-6.783033072e-13
-6.593487238e-13
-6.519022803e-13
-6.363324439e-13
-6.337092649e-13
-6.223703623e-13
-6.081544248e-13
-6.040081096e-13
-5.913999269e-13
-5.733761489e-13
-5.53363832e-13
-5.248261835e-13
-4.991867247e-13
-4.69030744e-13
-4.374679778e-13
-4.155623181e-13
-3.769920678e-13
-3.60364498e-13
-3.328740056e-13
-3.065523087e-13
-2.918392364e-13
-2.730538903e-13
-2.577669976e-13
-2.446154043e-13
-2.288445985e-13
-2.139133687e-13
-1.968891488e-13
-1.793592001e-13
-1.656294894e-13
-1.568222057e-13
-1.328533046e-13
-1.101920266e-13
-1.018266771e-13
-8.538148367e-14
-7.366634198e-14
-5.351833773e-14
-3.651746235e-14
-2.820725141e-14
-1.083119053e-14
-3.24935716e-14
-2.425488576e-13
-2.022915224e-13
-1.887208023e-13
-1.993298688e-13
-2.079292417e-13
-2.131121356e-13
-2.301627989e-13
-2.485673609e-13
-2.620640397e-13
-2.723452089e-13
-2.789031563e-13
-2.86011125e-13
-2.769569267e-13
-2.675642537e-13
-6.292244751e-13
-0
0
0
0
0
0
0
0
0
0
0
0
0
0
0
0
0
0
-1.408731719e-12
-5.148200251e-13
-5.28697488e-13
-5.2345113e-13
-5.184586282e-13
-5.121968461e-13
-5.096159765e-13
-5.039042159e-13
-4.991867247e-13
-4.913806518e-13
-4.821043295e-13
-4.66058513e-13
-4.498857686e-13
-4.331788687e-13
-4.091788967e-13
-3.854856674e-13
-3.551049184e-13
-3.362085103e-13
-3.058568489e-13
-2.834659539e-13
-2.692010962e-13
-2.467282269e-13
-2.243320432e-13
-2.147688106e-13
-2.01027531e-13
-1.852980429e-13
-1.798860836e-13
-1.646165444e-13
-1.549129968e-13
-1.458649135e-13
-1.25367692e-13
-1.221285485e-13
-1.037391914e-13
-9.768664229e-14
-8.635342088e-14
-6.738964426e-14
-6.014444902e-14
-4.730288318e-14
-3.551365884e-14
-2.066115992e-14
-5.415595267e-15
-1.299742864e-13
-4.110669509e-13
-3.617554174e-13
-3.502472775e-13
-3.656161445e-13
-3.768281191e-13
-3.960577132e-13
-4.17614321e-13
-4.283820475e-13
-4.436980279e-13
-4.551638585e-13
-4.648103875e-13
-4.653180996e-13
-4.701413641e-13
-4.598178857e-13
-1.22392453e-12
-0
0
0
0
0
0
0
0
0
0
0
0
0
0
0
0
0
0
-8.526177799e-13
-3.702913264e-13
-3.814609916e-13
-3.856919254e-13
-3.852688321e-13
-3.895843845e-13
-3.853111414e-13
-3.841687893e-13
-3.858823175e-13
-3.793878341e-13
-3.718779266e-13
-3.600418893e-13
-3.48364512e-13
-3.325831289e-13
-3.077634135e-13
-2.984606478e-13
-2.745188511e-13
-2.523117373e-13
-2.371967263e-13
-2.146511378e-13
-1.907516505e-13
-1.74650303e-13
-1.696459016e-13
-1.499231393e-13
-1.44007765e-13
-1.337808047e-13
-1.211230407e-13
-1.090367833e-13
-1.095881269e-13
-9.47358965e-14
-9.38564903e-14
-8.625337004e-14
-8.192261265e-14
-7.952172298e-14
-6.174428119e-14
-6.335558936e-14
-5.489082951e-14
-3.749979097e-14
-2.436455949e-14
-1.794333241e-14
-1.083119053e-14
-2.22039406e-13
-5.999464132e-13
-5.148200251e-13
-5.144815504e-13
-5.270897331e-13
-5.449865831e-13
-5.635603825e-13
-5.880997985e-13
-6.117084092e-13
-6.236396425e-13
-6.321015101e-13
-6.485175332e-13
-6.46486685e-13
-6.491944827e-13
-6.600256732e-13
-1.557660589e-12
-0
0
0
0
0
0
0
0
0
0
0
0
0
0
0
0
0
0
-5.043273093e-13
-2.206855071e-13
-2.359168688e-13
-2.470865341e-13
-2.536867908e-13
-2.592716234e-13
-2.636717946e-13
-2.629948452e-13
-2.673950163e-13
-2.629948452e-13
-2.599485728e-13
-2.531790787e-13
-2.434056217e-13
-2.37313077e-13
-2.165180373e-13
-2.071042096e-13
-1.879486568e-13
-1.71225891e-13
-1.568936027e-13
-1.459249068e-13
-1.20190252e-13
-1.159117202e-13
-9.577776395e-14
-8.666539028e-14
-7.598492676e-14
-7.143402859e-14
-6.49633442e-14
-6.270508329e-14
-6.07641424e-14
-5.682672963e-14
-5.491752076e-14
-5.43757629e-14
-5.57286701e-14
-4.78779741e-14
-5.050098779e-14
-3.9459738e-14
-4.369397722e-14
-3.023886401e-14
-2.535882894e-14
-1.611275114e-14
-5.415595267e-15
-3.24935716e-13
-7.743031952e-13
-6.711107197e-13
-6.730569493e-13
-6.873575055e-13
-7.132508204e-13
-7.321207852e-13
-7.551370651e-13
-7.747685979e-13
-7.915230958e-13
-8.05569796e-13
-8.076006442e-13
-8.116623407e-13
-8.164009865e-13
-8.265552277e-13
-1.908320382e-12
-0
0
0
0
0
0
0
0
0
0
0
0
0
0
0
0
0
0
-1.861610873e-13
-8.258782782e-14
-9.748071481e-14
-1.167737729e-13
-1.248971658e-13
-1.330205587e-13
-1.428363252e-13
-1.484211578e-13
-1.494365819e-13
-1.543444651e-13
-1.513828115e-13
-1.546829398e-13
-1.415247357e-13
-1.393246501e-13
-1.309474012e-13
-1.159275862e-13
-1.048636943e-13
-9.064775672e-14
-8.1170465e-14
-6.49236792e-14
-5.50232941e-14
-4.580514708e-14
-2.652795494e-14
-2.215422712e-14
-1.98483682e-14
-1.918464046e-14
-1.133361392e-14
-9.639918236e-15
-1.547728472e-14
-1.519698535e-14
-2.065753429e-14
-1.764960479e-14
-2.352531411e-14
-2.531718068e-14
-2.971437696e-14
-3.328753277e-14
-2.255715746e-14
-2.046995187e-14
-1.670409025e-14
-4.334765215e-15
-5.415595267e-15
-4.224164308e-13
-9.393519228e-13
-8.1809336e-13
-8.29347644e-13
-8.443251496e-13
-8.680183789e-13
-8.90188472e-13
-9.135432266e-13
-9.331747595e-13
-9.443444247e-13
-9.548371405e-13
-9.585603623e-13
-9.741301987e-13
-9.68037654e-13
-9.775149457e-13
-5.659297054e-13
-3.854549931e-12
-0
0
0
0
0
0
0
0
0
0
0
0
0
0
0
0
2.193316083e-13
7.852613137e-14
4.87403574e-14
2.301627989e-14
6.769494084e-15
-4.400171155e-15
-1.62467858e-14
-2.538560281e-14
-3.452441983e-14
-4.095543921e-14
-4.281705008e-14
-5.161739239e-14
-4.687874653e-14
-5.161739239e-14
-4.535561036e-14
-4.108236722e-14
-3.384747042e-14
-2.707797634e-14
-1.592946577e-14
-2.961653662e-16
7.361824816e-15
1.432171092e-14
2.303743455e-14
3.405901711e-14
3.3107057e-14
4.514406367e-14
4.077826885e-14
4.069629451e-14
3.419916679e-14
3.199643688e-14
3.027100919e-14
2.248609099e-14
1.146252519e-14
1.786247365e-15
-3.93741277e-15
-1.330298139e-14
-5.518724279e-15
-1.694356771e-14
-7.635182805e-15
-6.197491666e-15
1.573461143e-15
-5.415595267e-15
-5.198971456e-13
-1.111381691e-12
-9.665145178e-13
-9.665991365e-13
-9.872460935e-13
-1.016608774e-12
-1.033363272e-12
-1.059764299e-12
-1.075164898e-12
-1.085826851e-12
-1.103427536e-12
-1.10376601e-12
-1.103427536e-12
-1.111550929e-12
-1.127120765e-12
-1.145398399e-12
-2.636040996e-12
-0
0
0
0
0
0
0
0
0
0
0
0
0
0
0
0
6.241473545e-13
1.881919355e-13
1.62467858e-13
1.408054769e-13
1.191430959e-13
1.028963101e-13
8.83418978e-14
7.886460608e-14
7.091045053e-14
6.600256732e-14
5.161739239e-14
4.924806946e-14
5.009425622e-14
4.425556757e-14
4.260550339e-14
4.658258117e-14
4.645565315e-14
5.644065692e-14
5.745608104e-14
6.367555373e-14
7.227492668e-14
7.767994461e-14
9.071122072e-14
9.873412895e-14
9.198050087e-14
9.981301707e-14
9.625374401e-14
8.925683723e-14
8.378306662e-14
7.615416411e-14
6.149001198e-14
5.514361128e-14
4.353630883e-14
3.738360556e-14
2.154933581e-14
1.032281739e-14
4.62626168e-15
3.483579011e-15
9.767507333e-17
-7.26365393e-16
-3.453334445e-15
0
-6.119622652e-13
-1.252356406e-12
-1.089465454e-12
-1.097334991e-12
-1.118405041e-12
-1.139982804e-12
-1.162999084e-12
-1.187030788e-12
-1.197861978e-12
-1.219862834e-12
-1.221216733e-12
-1.223247581e-12
-1.225278429e-12
-1.237463519e-12
-1.276049635e-12
-1.409408668e-12
-6.376863427e-13
-4.673658716e-12
-0
0
0
0
0
0
0
0
0
0
0
0
0
0
1.380976793e-12
2.816109539e-13
2.856726503e-13
2.558868764e-13
2.328705965e-13
2.159468613e-13
2.044387213e-13
1.834532897e-13
1.814224414e-13
1.665295545e-13
1.59083111e-13
1.496058193e-13
1.392823408e-13
1.375053486e-13
1.277742008e-13
1.278165102e-13
1.191007865e-13
1.216393468e-13
1.259548993e-13
1.250240939e-13
1.308627825e-13
1.373149566e-13
1.444863894e-13
1.392929181e-13
1.486115498e-13
1.510496254e-13
1.515256055e-13
1.453643081e-13
1.390099744e-13
1.346812003e-13
1.157795035e-13
1.076098348e-13
9.345471686e-14
7.335513697e-14
5.9350085e-14
4.596711251e-14
3.323530719e-14
2.128126648e-14
1.606961545e-14
1.330661735e-14
8.19512045e-15
6.056350359e-15
1.083119053e-14
-6.877805989e-13
-1.370060984e-12
-1.207000795e-12
-1.199723589e-12
-1.227309277e-12
-1.248294709e-12
-1.276049635e-12
-1.302789136e-12
-1.320559058e-12
-1.326143891e-12
-1.325805416e-12
-1.327836265e-12
-1.323436093e-12
-1.307189308e-12
-1.314635751e-12
-1.436486645e-12
-1.658526051e-12
-3.711036657e-12
-0
0
0
0
0
0
0
0
0
0
0
0
0
0
9.626220587e-13
3.601370853e-13
3.452441983e-13
3.276435137e-13
3.147814749e-13
2.965038409e-13
2.839802768e-13
2.745029851e-13
2.626563705e-13
2.506405185e-13
2.453941605e-13
2.281319506e-13
2.250010596e-13
2.151852932e-13
1.994462194e-13
1.979230833e-13
1.911535892e-13
1.963999471e-13
1.903920211e-13
1.932902108e-13
1.959345444e-13
1.947075736e-13
1.906352998e-13
1.98388486e-13
2.025242238e-13
2.003823136e-13
1.932849221e-13
1.918834253e-13
1.745180864e-13
1.744942873e-13
1.548733318e-13
1.422122624e-13
1.163136589e-13
1.006168945e-13
8.735423919e-14
6.77841871e-14
5.50391601e-14
3.839638534e-14
2.69817887e-14
2.782004246e-14
8.823314958e-15
5.505915788e-15
1.083119053e-14
-7.690145279e-13
-1.479726788e-12
-1.293988794e-12
-1.303466086e-12
-1.323859187e-12
-1.352968011e-12
-1.374207299e-12
-1.394346544e-12
-1.406023921e-12
-1.417870536e-12
-1.41888596e-12
-1.416516637e-12
-1.405346972e-12
-1.398577478e-12
-1.367437805e-12
-1.320051346e-12
-1.158937387e-12
-8.610796475e-13
-7.822827363e-12
-0
0
0
0
0
0
0
0
0
0
-0
0
1.552921943e-12
3.736760734e-13
4.075235439e-13
3.99400151e-13
3.831533652e-13
3.770608205e-13
3.63860307e-13
3.574292876e-13
3.459211477e-13
3.317052101e-13
3.222279184e-13
3.173200352e-13
2.998885879e-13
2.853341756e-13
2.821186659e-13
2.682412031e-13
2.582561993e-13
2.58594674e-13
2.503866624e-13
2.465365127e-13
2.452672325e-13
2.435537043e-13
2.419776815e-13
2.464095847e-13
2.437123644e-13
2.460393779e-13
2.402429986e-13
2.321407604e-13
2.342403613e-13
2.188926489e-13
2.027992345e-13
1.868142377e-13
1.717613685e-13
1.503951528e-13
1.250148387e-13
1.058321815e-13
8.866186216e-14
7.195496231e-14
6.016751463e-14
4.071877135e-14
3.437468444e-14
1.799584722e-14
1.275684386e-14
1.083119053e-14
-8.231704806e-13
-1.573018878e-12
-1.380215225e-12
-1.379115182e-12
-1.407547057e-12
-1.431409524e-12
-1.448333259e-12
-1.481165306e-12
-1.486073189e-12
-1.485903951e-12
-1.496735142e-12
-1.479811407e-12
-1.467287843e-12
-1.466949368e-12
-1.478457508e-12
-1.506212434e-12
-1.205646896e-12
-7.351670575e-13
-8.312938735e-13
-4.758954341e-12
-5.41288747e-12
-0
0
0
0
-0
-0
-0
0
1.227986227e-12
8.692030404e-13
3.628448829e-13
4.21062532e-13
4.312167731e-13
4.298628743e-13
4.305398237e-13
4.247857538e-13
4.207240573e-13
4.132776138e-13
4.004155751e-13
3.983847268e-13
3.868765869e-13
3.748607349e-13
3.564138635e-13
3.449057236e-13
3.403363151e-13
3.207047822e-13
3.153738056e-13
3.072081034e-13
2.992539478e-13
2.942402913e-13
2.912151736e-13
2.905805336e-13
2.876400346e-13
2.829542754e-13
2.846889582e-13
2.829172547e-13
2.807700558e-13
2.744236551e-13
2.644095637e-13
2.541469048e-13
2.411050514e-13
2.195471215e-13
1.934462264e-13
1.698243942e-13
1.511725869e-13
1.257506245e-13
1.042554976e-13
8.832537071e-14
6.915692679e-14
4.927616551e-14
4.015255341e-14
2.830891364e-14
1.614547477e-14
1.083119053e-14
-8.773264333e-13
-1.646087105e-12
-1.440379104e-12
-1.443594613e-12
-1.470841827e-12
-1.490134885e-12
-1.52499778e-12
-1.533121173e-12
-1.550891095e-12
-1.552583468e-12
-1.542429227e-12
-1.538706005e-12
-1.517382099e-12
-1.495042768e-12
-1.49301192e-12
-1.562399235e-12
-1.536675157e-12
-1.168414679e-12
-9.71422401e-13
-1.234078772e-12
-6.268551522e-13
-2.920359748e-12
-2.323967319e-12
-1.983461767e-12
-1.339344405e-12
-9.584757436e-13
-3.432133501e-13
-5.415595267e-15
4.907883211e-13
2.382861918e-13
3.235818172e-13
3.872150616e-13
4.258011779e-13
4.366323684e-13
4.603255977e-13
4.562639013e-13
4.620179712e-13
4.610025471e-13
4.59987123e-13
4.494944072e-13
4.418787263e-13
4.352784696e-13
4.219933375e-13
4.036310848e-13
3.898382406e-13
3.775262232e-13
3.665257953e-13
3.571331223e-13
3.45582673e-13
3.469365718e-13
3.320436848e-13
3.252530361e-13
3.21328845e-13
3.228942905e-13
3.224394651e-13
3.06658082e-13
3.147550316e-13
3.062561433e-13
3.000472479e-13
2.923416597e-13
2.718057648e-13
2.569472542e-13
2.328256428e-13
2.110482332e-13
1.936908273e-13
1.589059406e-13
1.477891621e-13
1.201224909e-13
9.794644807e-14
7.212155533e-14
6.137630564e-14
4.974255985e-14
3.280965211e-14
2.228355156e-14
1.083119053e-14
-9.152356002e-13
-1.694869772e-12
-1.492334971e-12
-1.485650095e-12
-1.515139704e-12
-1.533755813e-12
-1.564937795e-12
-1.579746063e-12
-1.589138736e-12
-1.583892378e-12
-1.57932297e-12
-1.558337538e-12
-1.538536768e-12
-1.519751422e-12
-1.501812263e-12
-1.521105321e-12
-1.496058193e-12
-1.393500357e-12
-1.280788281e-12
-1.251002507e-12
-1.145398399e-12
-1.035732595e-12
-8.796957562e-13
-7.026734859e-13
-5.387882651e-13
-3.398180257e-13
-1.80745492e-13
-6.092544676e-15
1.177891971e-13
2.355783941e-13
3.168123231e-13
3.69614377e-13
4.166623609e-13
4.461096601e-13
4.698028894e-13
4.877420487e-13
4.875728114e-13
4.924806946e-13
4.863881499e-13
4.814802667e-13
4.756415781e-13
4.674335665e-13
4.502559753e-13
4.380708859e-13
4.285935942e-13
4.129814485e-13
3.985539642e-13
3.856496161e-13
3.750299723e-13
3.704182544e-13
3.584024024e-13
3.591005065e-13
3.513473203e-13
3.390987669e-13
3.410767285e-13
3.354601639e-13
3.343178117e-13
3.292671345e-13
3.190282747e-13
3.089956729e-13
2.965144182e-13
2.745228176e-13
2.49511388e-13
2.274457461e-13
2.031853072e-13
1.757893497e-13
1.540254924e-13
1.29388236e-13
1.03450298e-13
8.769882891e-14
6.539205679e-14
4.793127395e-14
3.754482728e-14
2.137852838e-14
1.083119053e-14
-9.477291718e-13
-1.728336458e-12
-1.509343325e-12
-1.523643881e-12
-1.539636811e-12
-1.568639862e-12
-1.584738565e-12
-1.604920119e-12
-1.619813006e-12
-1.613297368e-12
-1.59590823e-12
-1.577545978e-12
-1.538706005e-12
-1.500966076e-12
-1.494365819e-12
-1.517551336e-12
-1.472195726e-12
-1.367268568e-12
-1.291280997e-12
-1.258787425e-12
-1.142013652e-12
-1.033024797e-12
-8.8968076e-13
-7.141816259e-13
-5.452087071e-13
-3.607003283e-13
-1.95638379e-13
-3.469365718e-14
1.015424113e-13
2.04777196e-13
2.914267203e-13
3.685989529e-13
4.104005788e-13
4.54233053e-13
4.742030606e-13
4.906190837e-13
4.965423911e-13
5.105044726e-13
5.000963755e-13
5.014502743e-13
4.98784786e-13
4.84272683e-13
4.703106015e-13
4.576601094e-13
4.494097885e-13
4.303705864e-13
4.126006644e-13
4.035993528e-13
3.948201651e-13
3.844226453e-13
3.756646123e-13
3.721423599e-13
3.636276057e-13
3.60983272e-13
3.525769354e-13
3.533570138e-13
3.431393087e-13
3.378744405e-13
3.315729934e-13
3.220798357e-13
3.003209365e-13
2.791827945e-13
2.611173683e-13
2.390061116e-13
2.0444401e-13
1.904799452e-13
1.557692651e-13
1.368908716e-13
1.075999185e-13
9.499380167e-14
6.888811375e-14
4.683383418e-14
3.339235581e-14
2.430101285e-14
1.083119053e-14
-9.693915528e-13
-7.690145279e-13
-7.635989327e-13
-7.744301232e-13
-7.90676909e-13
-7.960925043e-13
-8.015080995e-13
-8.123392901e-13
-8.123392901e-13
-8.069236948e-13
-8.015080995e-13
-7.90676909e-13
-7.744301232e-13
-7.202741705e-13
-6.661182179e-13
-6.823650037e-13
-7.202741705e-13
-6.877805989e-13
-6.28209051e-13
-5.848842889e-13
-5.198971456e-13
-4.440788119e-13
-3.574292876e-13
-2.761953586e-13
-1.841302391e-13
-9.206511954e-14
-2.166238107e-14
4.87403574e-14
1.083119053e-13
1.516366675e-13
1.841302391e-13
2.166238107e-13
2.274550012e-13
2.43701787e-13
2.491173823e-13
2.599485728e-13
2.545329776e-13
2.599485728e-13
2.545329776e-13
2.491173823e-13
2.491173823e-13
2.43701787e-13
2.328705965e-13
2.22039406e-13
2.22039406e-13
2.112082154e-13
2.112082154e-13
2.003770249e-13
1.895458344e-13
1.895458344e-13
1.895458344e-13
1.787146438e-13
1.841302391e-13
1.787146438e-13
1.787146438e-13
1.787146438e-13
1.732990485e-13
1.732990485e-13
1.678834533e-13
1.516366675e-13
1.516366675e-13
1.299742864e-13
1.191430959e-13
1.083119053e-13
8.664952427e-14
8.123392901e-14
7.040273847e-14
5.415595267e-14
4.332476214e-14
3.24935716e-14
2.707797634e-14
1.62467858e-14
1.083119053e-14
5.415595267e-15
-5.415595267e-15
1.431062078e-14
-1.595699873e-12
-1.243281866e-12
-1.218176832e-12
-1.218656435e-12
-1.230175428e-12
-1.240699979e-12
-1.240188049e-12
-6.45238432e-12
-0
-1.001743484e-12
-2.893896463e-12
-2.358390411e-12
-2.241445436e-12
-2.181975395e-12
-2.116788409e-12
-2.089041904e-12
-2.012764268e-12
-9.205141582e-12
-0
-1.617100237e-12
-3.867543982e-12
-3.153065508e-12
-2.935806324e-12
-2.831925585e-12
-2.726334879e-12
-2.629859918e-12
-2.582030996e-12
-9.410134405e-12
-0
-2.261078253e-12
-4.854714405e-12
-3.947740656e-12
-3.630167236e-12
-3.458663287e-12
-3.302633379e-12
-3.170677962e-12
-3.008981067e-12
-1.226050734e-11
-0
-2.833503186e-12
-5.693133136e-12
-4.588607747e-12
-4.251437558e-12
-4.015763495e-12
-3.878931907e-12
-3.732704561e-12
-3.618909739e-12
-1.389068648e-11
-0
-3.348685642e-12
-6.396323112e-12
-5.165388108e-12
-4.763071968e-12
-4.503226197e-12
-4.300073158e-12
-4.199292688e-12
-4.269500313e-12
-1.520849614e-11
-0
-3.792314992e-12
-6.937238499e-12
-5.665264428e-12
-5.21379751e-12
-4.955870126e-12
-4.721214391e-12
-4.549233843e-12
-4.513471827e-12
-1.545253509e-11
-0
-4.107148707e-12
-7.356447913e-12
-5.972880711e-12
-5.493978273e-12
-5.28084527e-12
-5.242099611e-12
-5.461201516e-12
-5.702832712e-12
-7.116170679e-12
-0
-4.393361207e-12
-7.599859811e-12
-6.177958181e-12
-5.591432445e-12
-5.106751515e-12
-4.798793128e-12
-4.909779243e-12
-5.997631597e-12
-1.23483621e-11
-0
-4.565088704e-12
-7.829748833e-12
-6.408670327e-12
-6.066521507e-12
-6.035251815e-12
-6.139795386e-12
-6.394377735e-12
-6.724463237e-12
-5.759315139e-13
-0
-4.565088704e-12
-7.74861154e-12
-6.139506173e-12
-5.402615037e-12
-4.857217086e-12
-4.793251813e-12
-5.620265671e-12
-7.903658604e-12
-1.270465873e-11
-0
-4.66526304e-12
-7.721565751e-12
-6.408670312e-12
-5.962976431e-12
-5.675457934e-12
-5.413880931e-12
-5.323345961e-12