/*--------------------------------*- C++ -*----------------------------------*\
| =========                 |                                                 |
| \\      /  F ield         | OpenFOAM Extend Project: Open source CFD        |
|  \\    /   O peration     | Version:  1.6-ext                               |
|   \\  /    A nd           | Web:      www.extend-project.de                 |
|    \\/     M anipulation  |                                                 |
\*---------------------------------------------------------------------------*/
FoamFile
{
    version     2.0;
    format      ascii;
    class       surfaceScalarField;
    location    "0";
    object      phi;
}
// * * * * * * * * * * * * * * * * * * * * * * * * * * * * * * * * * * * * * //

dimensions      [0 3 -1 0 0 0 0];

internalField   nonuniform List<scalar> 
5170
(
0.002010671623
-8.671622736e-06
0.002019716956
-9.045332846e-06
0.002029522034
-9.805078072e-06
0.002040497654
-1.097562015e-05
0.002053092029
-1.259437555e-05
0.002067803754
-1.471172418e-05
0.002085195161
-1.739140727e-05
0.002105906203
-2.07110417e-05
0.002130669042
-2.476283999e-05
0.002160323767
-2.965472437e-05
0.002195835949
-3.551218251e-05
0.002238317356
-4.248140691e-05
0.002289051773
-5.073441715e-05
0.002349528608
-6.04768347e-05
0.002421487041
-7.195843335e-05
0.002506973314
-8.548627294e-05
0.002608279114
-0.0001013057998
0.002726506243
-0.0001182271292
0.002868342569
-0.0001418363253
0.00301214711
-0.0001438045416
0.003192413863
-0.0001802667523
0.003333672665
-0.0001412588025
0.003455181385
-0.0001215087202
0.003581128046
-0.0001259466605
0.003584711662
-3.58361621e-06
0.003581149098
3.562563525e-06
0.003455226877
0.0001259222219
0.003333746497
0.0001214803798
0.003192527724
0.0001412187727
0.003012310192
0.0001802175317
0.002868568971
0.0001437412217
0.002726810719
0.000141758252
0.002608678244
0.0001181324744
0.00250749018
0.0001011880642
0.002422149904
8.534027626e-05
0.002350372986
7.177691779e-05
0.002290122216
6.025076992e-05
0.002239669669
5.045254688e-05
0.002197539935
4.212973443e-05
0.002162466605
3.507332966e-05
0.002133359464
2.910714102e-05
0.002109279632
2.40798325e-05
0.002089420045
1.985958649e-05
0.002073089336
1.633070887e-05
0.00205969787
1.339146665e-05
0.002048745258
1.095261203e-05
0.002039809017
8.936240622e-06
0.002032534231
7.2747858e-06
0.002026624174
5.910057358e-06
0.002021831884
4.792290415e-06
0.002017952674
3.879209786e-06
0.002014817545
3.135129185e-06
0.002012287446
2.530098818e-06
0.002010248333
2.039112472e-06
0.002008606941
1.641392215e-06
0.002007287194
1.319747412e-06
0.002006227184
1.060009254e-06
0.002005376644
8.505405162e-07
0.002004694831
6.818125189e-07
0.002004148788
5.460431266e-07
0.002003711895
4.368928649e-07
0.002003362688
3.492075161e-07
0.002003083884
2.788038697e-07
0.002002861592
2.222921358e-07
0.002002684664
1.76927816e-07
0.002002544174
1.404903207e-07
0.002002432993
1.11180673e-07
0.00200234545
8.754251545e-08
0.002002277058
6.83926102e-08
0.002002224293
5.276452351e-08
0.002002184427
3.986638525e-08
0.002002155389
2.903829882e-08
0.002002135666
1.972219275e-08
0.002002124231
1.143566273e-08
3.746585771e-09
0.002010201891
-1.687351396e-05
0.002018764074
-1.760751593e-05
0.002028059507
-1.910051071e-05
0.002038486679
-2.140279206e-05
0.002050482863
-2.459055981e-05
0.002064537927
-2.876678757e-05
0.002081208857
-3.406233824e-05
0.002101135163
-4.063734691e-05
0.002125055326
-4.868300346e-05
0.002153824681
-5.842407893e-05
0.00218843539
-7.012289195e-05
0.002230039948
-8.408596496e-05
0.00227998093
-0.0001006753991
0.002339832089
-0.0001203279934
0.002411460612
-0.0001435869569
0.002497133185
-0.0001711588457
0.002599346831
-0.0002035194459
0.002720760592
-0.0002396408902
0.002868497565
-0.0002895732978
0.003016596507
-0.0002919034843
0.003203475506
-0.0003671457512
0.003350703081
-0.0002884863775
0.003482739463
-0.0002535451016
0.003613962776
-0.0002571699742
0.003621704661
-1.132550062e-05
0.003613980943
1.128628151e-05
0.003482779296
0.0002571238683
0.003350768077
0.0002534915989
0.003203577935
0.0002884089147
0.003016744797
0.0003670506704
0.002868705899
0.0002917801188
0.002721042662
0.0002894214889
0.002599717673
0.0002394574636
0.002497614502
0.0002032912351
0.002412078871
0.0001708759073
0.002340620541
0.0001432352486
0.002280981309
0.0001198900012
0.002231304575
0.0001001292808
0.002190029757
8.340455295e-05
0.00215583064
6.927244657e-05
0.002127575036
5.736274485e-05
0.002104295957
4.735891135e-05
0.002085169249
3.898629455e-05
0.002069494996
3.200496209e-05
0.002056681336
2.620512685e-05
0.002046230043
2.140390516e-05
0.002037723597
1.744268643e-05
0.002030813621
1.418476175e-05
0.002025210613
1.151306483e-05
0.002020674913
9.327990363e-06
0.002017008817
7.545306489e-06
0.002014049759
6.094187441e-06
0.002011664466
4.915391661e-06
0.002009743975
3.959603219e-06
0.002008199419
3.185948469e-06
0.002006958483
2.560682607e-06
0.002005962447
2.05604572e-06
0.002005163711
1.649276122e-06
0.002004523763
1.321761277e-06
0.002004011486
1.058320086e-06
0.00200360178
8.46598294e-07
0.002003274427
6.76560949e-07
0.00200301316
5.400707209e-07
0.002002804915
4.305373309e-07
0.002002639215
3.426280712e-07
0.002002507676
2.720292952e-07
0.002002403605
2.152514311e-07
0.00200232168
1.694677283e-07
0.00200225769
1.32382423e-07
0.002002208331
1.021237269e-07
0.002002171043
7.715364436e-08
0.002002143888
5.619370148e-08
0.002002125447
3.816298352e-08
0.002002114756
2.212701014e-08
7.249308124e-09
0.002009275532
-2.414904559e-05
0.002016883435
-2.52154197e-05
0.002025169239
-2.738631458e-05
0.002034505156
-3.07387084e-05
0.002045304353
-3.538975766e-05
0.002058036352
-4.14987863e-05
0.002073243911
-4.926989667e-05
0.002091561769
-5.895520532e-05
0.002113737577
-7.085881157e-05
0.002140655368
-8.534187027e-05
0.002173362205
-0.0001028297287
0.00221309955
-0.0001238233101
0.002261343173
-0.0001489190214
0.002319860143
-0.0001788449639
0.00239080281
-0.0002145296232
0.002476889122
-0.0002572451586
0.00258083309
-0.0003074634135
0.002709104963
-0.0003679127627
0.002868391346
-0.0004488596812
0.003025770088
-0.0004492822258
0.003225463783
-0.0005668394464
0.003387429336
-0.0004504519305
0.003539055522
-0.0004051712877
0.003679551356
-0.0003976658083
0.003695171109
-2.694525316e-05
0.003679563832
2.689355825e-05
0.003539084217
0.0003976034835
0.003387476956
0.0004050988598
0.003225543845
0.0004503420256
0.003025889528
0.000566704987
0.002868564588
0.0004491050589
0.002709343619
0.0004486424585
0.002581149153
0.000367651929
0.002477301563
0.0003071388247
0.002391334654
0.000256842817
0.002320540222
0.00021402968
0.002262207748
0.0001782224751
0.002214194165
0.0001481428642
0.00217474396
0.0001228547583
0.002142395742
0.0001016206642
0.00211592592
8.383256688e-05
0.002094309628
6.897520378e-05
0.002076690385
5.660553685e-05
0.002062354725
4.634062231e-05
0.002050710267
3.784958474e-05
0.002041266693
3.084747912e-05
0.002033619327
2.509005266e-05
0.00202743507
2.036901828e-05
0.002022440436
1.650769917e-05
0.002018411416
1.335701029e-05
0.002015164946
1.079177691e-05
0.002012551738
8.707394828e-06
0.002010450295
7.016834724e-06
0.002008761915
5.647983543e-06
0.002007406554
4.541309581e-06
0.0020063194
3.647836591e-06
0.002005448049
2.927396584e-06
0.002004750187
2.347138349e-06
0.002004191687
1.880261377e-06
0.002003745058
1.504948824e-06
0.002003388178
1.20347792e-06
0.002003103265
9.614743866e-07
0.00200287604
7.672956665e-07
0.002002695053
6.115240298e-07
0.002002551135
4.865463067e-07
0.002002436955
3.862090514e-07
0.002002346669
3.05537243e-07
0.002002275633
2.405038134e-07
0.002002220175
1.878404e-07
0.002002177417
1.448825445e-07
0.002002145128
1.094416881e-07
0.002002121622
7.970004603e-08
0.002002105663
5.412205978e-08
0.002002096412
3.137825168e-08
1.027970996e-08
0.002007920919
-3.006996461e-05
0.002014129969
-3.142446993e-05
0.002020928665
-3.418500999e-05
0.002028645874
-3.845591795e-05
0.002037653019
-4.439690294e-05
0.002048381219
-5.222698547e-05
0.002061341258
-6.222993583e-05
0.002077147566
-7.476151301e-05
0.002096547778
-9.0259024e-05
0.002120459893
-0.0001092539856
0.002150018895
-0.0001323887308
0.002186633057
-0.000160437472
0.002232046891
-0.000194332855
0.002288408297
-0.0002352063698
0.002358357787
-0.0002844791135
0.002445215366
-0.000344102738
0.002551459082
-0.0004137071295
0.002690903323
-0.0005073570036
0.002866880204
-0.000624836562
0.003040238854
-0.0006226408759
0.003259408261
-0.0007860088534
0.003449237481
-0.0006402811504
0.003626849605
-0.0005827834117
0.003777165252
-0.0005479814557
0.003803075169
-5.285517002e-05
0.003777169383
5.279934452e-05
0.00362686201
0.0005479108568
0.003449259733
0.0005827011363
0.003259455967
0.0006401457919
0.003040316789
0.0007858441646
0.002867003326
0.0006224185223
0.002691080233
0.0006245655516
0.00255169734
0.0005070348215
0.002445529887
0.0004133062778
0.002358766807
0.0003436058973
0.002288934309
0.0002838621775
0.002232718325
0.00023443846
0.002187485758
0.0001933754306
0.002151097957
0.0001592425592
0.00212182193
0.0001308966911
0.002098263757
0.0001073907403
0.002079306337
8.793262396e-05
0.002064053958
7.185791545e-05
0.002051786755
5.860782565e-05
0.002041924899
4.771144074e-05
0.00203400071
3.877166784e-05
0.002027636753
3.145401006e-05
0.002022528432
2.547733878e-05
0.002018430033
2.060609802e-05
0.002015143452
1.664359125e-05
0.00201250908
1.342614972e-05
0.002010398409
1.081806512e-05
0.002008708051
8.707193515e-06
0.002007354872
7.001162527e-06
0.002006272069
5.624112493e-06
0.002005405989
4.513916297e-06
0.002004713562
3.619823621e-06
0.002004160228
2.900471873e-06
0.002003718271
2.322218451e-06
0.002003365469
1.857750916e-06
0.002003084016
1.484931002e-06
0.002002859651
1.185839716e-06
0.002002680958
9.459884161e-07
0.002002538809
7.536735957e-07
0.002002425908
5.994469317e-07
0.002002336438
4.756787051e-07
0.002002265768
3.762075684e-07
0.002002210221
2.960504057e-07
0.002002166897
2.311647283e-07
0.002002133522
1.782570523e-07
0.00200210834
1.34624399e-07
0.002002090018
9.802170209e-08
0.002002077586
6.655390384e-08
0.002002070383
3.858147015e-08
1.263858328e-08
0.002006185519
-3.425548341e-05
0.002010596827
-3.583577783e-05
0.002015472517
-3.906070015e-05
0.002021077519
-4.406092057e-05
0.002027718125
-5.103750812e-05
0.002035759295
-6.026815563e-05
0.002045645054
-7.211569499e-05
0.002057922571
-8.703902958e-05
0.002073270192
-0.0001056066459
0.002092529544
-0.0001285133372
0.002116743714
-0.0001566029012
0.002147212197
-0.0001909059544
0.002185595672
-0.0002327163301
0.002234141991
-0.0002837526887
0.00229613464
-0.0003464717626
0.002376611226
-0.0004245793238
0.002479816194
-0.0005169120975
0.002636534112
-0.0006640749213
0.002846053011
-0.0008343554612
0.003069203707
-0.0008457915725
0.003350270056
-0.001067075202
0
-0
0
-0
0
-0
0
-0
0
0
0
0
0
0
0.003350258788
0
0.003069219406
0.001066883547
0.002846108622
0.000845529306
0.002636632281
0.0008340418927
0.002479957493
0.000663709609
0.002376804496
0.0005164592749
0.002296392032
0.0004240183618
0.002234477886
0.0003457763233
0.002186028664
0.0002828876819
0.002147766036
0.0002316380588
0.002117448533
0.000189560062
0.002093423419
0.0001549218048
0.002074401125
0.0001264130342
0.002059350987
0.0001029827628
0.002047446959
8.37619426e-05
0.002038030268
6.802451751e-05
0.002030578356
5.516335204e-05
0.002024678192
4.46718321e-05
0.002020003878
3.612832358e-05
0.002016298422
2.918279519e-05
0.002013359164
2.354535612e-05
0.002011026246
1.897650962e-05
0.002009173509
1.527888581e-05
0.002007701337
1.229023794e-05
0.002006531007
9.877523096e-06
0.002005600267
7.931902941e-06
0.002004859839
6.364539715e-06
0.002004270684
5.10307153e-06
0.002003801841
4.088666902e-06
0.002003428737
3.273575965e-06
0.002003131851
2.619104202e-06
0.002002895666
2.093936224e-06
0.002002707838
1.672758592e-06
0.002002558546
1.335131823e-06
0.002002439971
1.064563303e-06
0.002002345891
8.477533335e-07
0.002002271358
6.739807852e-07
0.002002212435
5.346016051e-07
0.002002166001
4.226416786e-07
0.002002129585
3.324657282e-07
0.002002101243
2.595069474e-07
0.002002079453
2.000472581e-07
0.002002063041
1.510366622e-07
0.002002051118
1.09944604e-07
0.002002043037
7.463473738e-08
0.002002038358
4.326002241e-08
1.417039171e-08
0.002004139973
-3.639545624e-05
0.002006424596
-3.812040145e-05
0.002009009649
-4.164575271e-05
0.002012073985
-4.712525612e-05
0.002015833204
-5.479672714e-05
0.002020556163
-6.499111532e-05
0.002026585987
-7.814551853e-05
0.002034368408
-9.482145072e-05
0.002044492563
-0.0001157308006
0.002057752947
-0.0001417737216
0.002075245089
-0.0001740950432
0.002098507208
-0.0002141680733
0.002129705789
-0.0002639149113
0.00217181904
-0.0003258659392
0.002228688261
-0.0004033409839
0.002304711307
-0.0005006023698
0.002399269489
-0.00061147028
0.00255619574
-0.000821001172
0.00275070508
-0.001028864801
0
-0
0
-0
0
-0
0
0
0
0
0
0
0
0
0
0
0
0
0
0
0
0
0.002750676993
0
0.00255620081
0.001028518076
0.002399299094
0.0008206113254
0.002304766278
0.0006109920909
0.002228773872
0.0005000107681
0.002171940143
0.0004026100518
0.002129869617
0.0003249582084
0.00209872364
0.0002627840356
0.002075527147
0.0002127565547
0.00205811751
0.0001723314416
0.002044961332
0.0001395692125
0.00203496918
0.0001129749146
0.00202735432
9.137680349e-05
0.002021537546
7.38412913e-05
0.002017085901
5.961499637e-05
0.002013672766
4.808496764e-05
0.002011050681
3.875040866e-05
0.002009031895
3.120158109e-05
0.002007473912
2.510333869e-05
0.002006268563
2.01818592e-05
0.002005333685
1.621376371e-05
0.002004606798
1.301712497e-05
0.002004040302
1.04440188e-05
0.002003597849
8.374355582e-06
0.002003251607
6.710782361e-06
0.002002980196
5.374482443e-06
0.002002767143
4.30172006e-06
0.002002599711
3.441008066e-06
0.002002468021
2.750793848e-06
0.002002364387
2.197569807e-06
0.002002282812
1.75433419e-06
0.002002218604
1.399339812e-06
0.002002168087
1.115080466e-06
0.002002128373
8.874667944e-07
0.002002097195
7.051592038e-07
0.002002072767
5.59029899e-07
0.002002053685
4.417231413e-07
0.00200203885
3.473010697e-07
0.0020020274
2.709569584e-07
0.002002018666
2.087806581e-07
0.002002012136
1.57567229e-07
0.002002007421
1.146590844e-07
0.002002004242
7.781434359e-08
0.002002002407
4.509444798e-08
1.476957588e-08
0.002001880509
-3.627596566e-05
0.002001806438
-3.80463303e-05
0.002001831465
-4.167077948e-05
0.002002026788
-4.732057895e-05
0.002002492507
-5.526244579e-05
0.002003372468
-6.587107659e-05
0.002004874132
-7.964718249e-05
0.00200729503
-9.724234859e-05
0.002011056916
-0.0001194926868
0.002016747608
-0.0001474644137
0.002025168825
-0.0001825162602
0.002037385111
-0.0002263843593
0.002054759366
-0.0002812891661
0.002078935996
-0.0003500425692
0.002111694298
-0.0004360992858
0.002154578305
-0.000543486377
0.002203244877
-0.0006601368518
0.00232674846
-0.0009445047553
0
-0
0
-0
0
-0
0
0
0
0
0
0
0
0
0
0
0
0
0
0
0
0
0
0
0
0
0.002326657357
0
0.002203158595
0.0009441100877
0.002154488935
0.0006596617509
0.002111600591
0.0005428991119
0.002078832591
0.0004353780512
0.002054641321
0.000349149479
0.002037247517
0.0002801778395
0.002025006513
0.0002249975588
0.002016554915
0.0001807830395
0.002010827511
0.0001452966164
0.002007021807
0.0001167806186
0.002004549192
9.384941882e-05
0.002002987227
7.540325585e-05
0.002002038008
6.05642155e-05
0.002001494322
4.86286536e-05
0.002001213671
3.903106024e-05
0.002001099133
3.131611872e-05
0.002001085619
2.511685267e-05
0.002001130103
2.013737483e-05
0.002001204724
1.613914295e-05
0.002001291924
1.292992483e-05
0.002001381052
1.035489087e-05
0.002001466004
8.289403518e-06
0.002001543607
6.633179104e-06
0.002001612527
5.305563246e-06
0.002001672536
4.241710893e-06
0.002001724041
3.389502889e-06
0.002001767775
2.707059611e-06
0.002001804609
2.160736403e-06
0.002001835434
1.723509065e-06
0.0020018611
1.373673312e-06
0.002001882382
1.093798905e-06
0.002001899962
8.698866745e-07
0.002001914431
6.906897389e-07
0.002001926293
5.471681471e-07
0.002001935969
4.320468986e-07
0.00200194381
3.394604443e-07
0.002001950102
2.646654428e-07
0.002001955075
2.038067492e-07
0.002001958916
1.537270946e-07
0.002001961764
1.118104936e-07
0.002001963727
7.585157334e-08
0.002001964876
4.394521542e-08
1.439133353e-08
0.001999529631
-3.380559624e-05
0.001996988768
-3.550546725e-05
0.001994309815
-3.899182712e-05
0.001991431472
-4.444223582e-05
0.00198830305
-5.213402359e-05
0.00198489007
-6.245809654e-05
0.001981181625
-7.593873806e-05
0.001977200596
-9.326131926e-05
0.00197301865
-0.0001153107408
0.001968777236
-0.0001432229993
0.001964708748
-0.0001784477727
0.001961133558
-0.0002228091696
0.001958383245
-0.0002785388523
0.00195659806
-0.0003482573844
0.001955416542
-0.0004349177682
0.00195371763
-0.000541787465
0.001946625258
-0.0006530444802
0.002032582333
-0.00103046183
0
-0
0
0
0
0
0
0
0
0
0
0
0
0
0
0
0
0
0
0
0
0
0
0
0
0
0.002032402279
0
0.001946428655
0.001030083711
0.00195348775
0.0006526026567
0.001955147154
0.0005412397072
0.001956274092
0.0004342511141
0.001957987889
0.0003474356818
0.001960647289
0.0002775184394
0.00196410828
0.0002215365676
0.001968034373
0.0001768569465
0.001972098967
0.0001412320228
0.001976061901
0.0001128176842
0.001979772169
9.013915042e-05
0.001983146448
7.202897768e-05
0.001986147759
5.756290448e-05
0.001988770101
4.600631088e-05
0.001991027871
3.677329016e-05
0.00199294818
2.939580989e-05
0.001994565062
2.349997112e-05
0.00199591519
1.878724696e-05
0.001997034907
1.501942519e-05
0.001997958357
1.200647554e-05
0.001998716452
9.596795522e-06
0.001999336455
7.669400358e-06
0.001999841941
6.127693467e-06
0.002000252996
4.894508282e-06
0.002000586541
3.908166167e-06
0.002000856701
3.119342751e-06
0.002001075185
2.48857548e-06
0.002001251642
1.984279211e-06
0.002001393986
1.581164908e-06
0.002001508682
1.258977793e-06
0.002001600991
1.001489798e-06
0.002001675184
7.956937807e-07
0.002001734715
6.311584951e-07
0.002001782371
4.99512155e-07
0.002001820391
3.940267082e-07
0.002001850567
3.092841945e-07
0.002001874325
2.409078486e-07
0.002001892788
1.853440614e-07
0.002001906829
1.396852348e-07
0.002001917116
1.015243026e-07
0.002001924134
6.883370986e-08
0.002001928216
3.986323089e-08
1.305182899e-08
0.001997238931
-2.904452754e-05
0.001992281231
-3.05477671e-05
0.00198692678
-3.363737644e-05
0.001980969426
-3.848488096e-05
0.001974196285
-4.536088343e-05
0.001966389433
-5.465124402e-05
0.001957328946
-6.687825126e-05
0.001946792513
-8.272488644e-05
0.001934539911
-0.0001030581382
0.001920262517
-0.0001289456061
0.001903476101
-0.0001616613559
0.001883353287
-0.0002026863558
0.001858541117
-0.0002537266827
0.001827071344
-0.0003167876112
0.001786476134
-0.0003943225581
0.001734070655
-0.0004893819857
0.001669804538
-0.0005887783639
0
-0
0
-0
0
0
0
0
0
0
0
0
0
0
0
0
0
0
0
0
0
0
0
0
0
0
0
0
0
0
0.001669553885
0
0.001733741659
0.000588414882
0.001786064115
0.0004889172518
0.001826555994
0.0003937592352
0.001857897283
0.0003160943921
0.001882549679
0.0002528660434
0.001902473744
0.0002016125035
0.001919012894
0.0001603177957
0.001932982698
0.0001272622189
0.001944852782
0.0001009476008
0.001954913703
8.007822925e-05
0.001963383374
6.355930662e-05
0.001970456597
5.048968103e-05
0.001976319458
4.014345038e-05
0.00198114838
3.194436767e-05
0.001985105518
2.543867235e-05
0.001988335284
2.027020512e-05
0.001990963066
1.6159465e-05
0.001993095693
1.288679768e-05
0.001994822948
1.027922035e-05
0.001996219544
8.200200293e-06
0.0019973472
6.541743683e-06
0.001998256629
5.21826481e-06
0.001998989317
4.161820273e-06
0.001999579091
3.318391769e-06
0.002000053457
2.644976842e-06
0.002000434728
2.107304845e-06
0.002000740969
1.67803823e-06
0.002000986782
1.335352163e-06
0.002001183949
1.06181034e-06
0.002001341966
8.434733583e-07
0.00200146847
6.691898003e-07
0.002001569596
5.300317466e-07
0.002001650264
4.188444923e-07
0.002001714405
3.298859459e-07
0.002001765151
2.585379326e-07
0.002001804985
2.010740536e-07
0.002001835857
1.544720962e-07
0.00200185928
1.162619959e-07
0.002001876403
8.440092615e-08
0.002001888067
5.716982656e-08
0.002001894844
3.308633497e-08
1.082923093e-08
0.001995182203
-2.22267307e-05
0.001988037124
-2.340268762e-05
0.001980221382
-2.582163498e-05
0.001971358289
-2.962178758e-05
0.001961018351
-3.502094512e-05
0.001948696424
-4.232931727e-05
0.001933785041
-5.196686828e-05
0.001915545103
-6.448494914e-05
0.001893078049
-8.059108403e-05
0.001865306317
-0.0001011738737
0.001830966796
-0.0001273218349
0.001788606646
-0.0001603262055
0.001736534471
-0.0002016545083
0.001672625366
-0.0002528785063
0.001593835841
-0.0003155330327
0.001495324184
-0.0003908703289
0.001382236557
-0.0004756907366
0
-0
0
0
0
0
0
0
0
0
0
0
0
0
0
0
0
0
0
0
0
0
0
0
0
0
0
0
0
0
0.001381911884
0
0.001494895036
0.0004754317299
0.001593295578
0.0003905167095
0.001671945669
0.000315109144
0.00173568039
0.0002523596715
0.001787535042
0.0002010113908
0.001829624237
0.0001595233088
0.001863626373
0.0001263156596
0.001890977947
9.99106449e-05
0.00191292161
7.90039374e-05
0.001930509401
6.249043872e-05
0.0019446081
4.946060801e-05
0.001955917267
3.918051353e-05
0.001964995209
3.106550816e-05
0.001972285957
2.465362019e-05
0.001978143048
1.958158133e-05
0.00198284878
1.556447289e-05
0.00198662922
1.237902555e-05
0.0019896658
9.850217516e-06
0.001992104337
7.840683123e-06
0.00199406211
6.242426794e-06
0.001995633475
4.970378605e-06
0.001996894345
3.957394885e-06
0.001997905786
3.150379253e-06
0.001998716909
2.507269599e-06
0.001999367193
1.994692001e-06
0.00199988837
1.586128276e-06
0.002000305927
1.260481541e-06
0.002000640329
1.00094971e-06
0.002000908001
7.941380929e-07
0.002001122116
6.293589657e-07
0.002001293228
4.980773785e-07
0.002001429789
3.934712048e-07
0.002001538552
3.100814374e-07
0.002001624905
2.435331688e-07
0.00200169313
1.903127909e-07
0.002001746615
1.475890611e-07
0.002001788018
1.130690191e-07
0.002001819398
8.488130566e-08
0.002001842319
6.148051213e-08
0.002001857921
4.156810688e-08
0.002001866981
2.402589814e-08
7.858475945e-09
0.001993560441
-1.378717185e-05
0.0019846877
-1.452994612e-05
0.00197492348
-1.605741501e-05
0.001963757392
-1.845569949e-05
0.001950596152
-2.185970548e-05
0.001934726876
-2.646004125e-05
0.001915272326
-3.251231848e-05
0.001891136502
-4.034912506e-05
0.001860941209
-5.039579098e-05
0.001822959977
-6.319264212e-05
0.00177506528
-7.942713789e-05
0.001714712733
-9.997365757e-05
0.001638976565
-0.0001259183405
0.001544607698
-0.0001585096399
0.001428019271
-0.0001989446052
0.001285076842
-0.0002479279004
0
-0
0
-0
0
0
0
0
0
0
0
0
0
0
0
0
0
0
0
0
0
0
0
0
0
0
0
0
0
0
0
0
0
0
0.001284625129
0
0.001427414784
0.0002477270541
0.001543822741
0.0001987011872
0.001637973812
0.0001582086004
0.001713443532
0.0001255416711
0.001773467349
9.949949189e-05
0.001820954402
7.882860601e-05
0.001858428602
6.243644508e-05
0.001887992108
4.944043102e-05
0.001911339846
3.914270131e-05
0.001929810687
3.098976685e-05
0.001944451537
2.453966371e-05
0.001956078256
1.943878862e-05
0.00196532691
1.540496605e-05
0.001972694512
1.221397999e-05
0.001978570626
9.68835854e-06
0.00198326164
7.688011567e-06
0.001987009327
6.102530839e-06
0.001990005052
4.844958274e-06
0.001992400676
3.84680202e-06
0.001994316971
3.054084222e-06
0.001995850141
2.424225011e-06
0.001997076925
1.923595294e-06
0.001998058594
1.525599886e-06
0.001998844109
1.20917755e-06
0.00199947261
9.576274305e-07
0.001999975401
7.576899459e-07
0.002000377525
5.98825847e-07
0.002000699013
4.726496892e-07
0.002000955889
3.724835746e-07
0.002001160962
2.93004662e-07
0.002001324466
2.299664531e-07
0.00200145457
1.799775921e-07
0.002001557778
1.403257274e-07
0.002001639253
1.088371731e-07
0.002001703078
8.376448216e-08
0.002001752451
6.369599657e-08
0.002001789849
4.748271684e-08
0.002001817151
3.417864004e-08
0.002001835728
2.299142697e-08
0.002001846513
1.324081732e-08
4.322722693e-09
0.001992534841
-4.322012953e-06
0.001982572942
-4.56804683e-06
0.001971588784
-5.073257563e-06
0.001958997583
-5.864498229e-06
0.001944121625
-6.983746984e-06
0.001926152736
-8.491152258e-06
0.001904111734
-1.047131704e-05
0.001876807904
-1.304529453e-05
0.001842802608
-1.639049538e-05
0.00180037708
-2.076711391e-05
0.00174749085
-2.654090796e-05
0.001681697419
-3.418022704e-05
0.001599978257
-4.419917807e-05
0.001498499947
-5.703133032e-05
0.001372406567
-7.285122464e-05
0.001215870875
-9.139220854e-05
0
-0
0
-0
0
0
0
0
0
0
0
0
0
0
0
0
0
0
0
0
0
0
0
0
0
0
0
0
0
0
0
0
0
0
0.001215379079
0
0.001371746354
9.135977968e-05
0.001497640558
7.280698259e-05
0.001598878407
5.697075178e-05
0.001680303334
4.4116744e-05
0.001745733653
3.406917261e-05
0.001798169402
2.639285723e-05
0.001840034249
2.057159794e-05
0.001873340332
1.613434798e-05
0.001899771129
1.271190507e-05
0.001920721195
1.003970033e-05
0.001937326078
7.934780762e-06
0.001950495791
6.269076165e-06
0.001960951658
4.949098997e-06
0.001969262187
3.903450467e-06
0.001975874636
3.075909449e-06
0.00198114104
2.421607646e-06
0.001985338912
1.904659174e-06
0.001988687429
1.496441481e-06
0.001991360019
1.17421124e-06
0.001993494152
9.199518554e-07
0.001995198959
7.194181267e-07
0.001996561198
5.613561605e-07
0.001997649922
4.368759216e-07
0.001998520147
3.389521614e-07
0.001999215745
2.620299351e-07
0.00199977172
2.017140913e-07
0.002000216021
1.545249017e-07
0.002000570965
1.177060715e-07
0.002000854375
8.907354097e-08
0.002001080484
6.689623517e-08
0.002001260648
4.980183507e-08
0.002001403924
3.670217454e-08
0.002001517515
2.673402885e-08
0.00200160714
1.921208394e-08
0.002001677313
1.359137627e-08
0.002001731572
9.437016055e-09
0.002001772655
6.400060121e-09
0.002001802636
4.197921389e-09
0.002001823029
2.59778181e-09
0.002001834867
1.403117869e-09
4.422501605e-10
0.001992194789
5.483197661e-06
0.0019818761
5.750642315e-06
0.001970503085
6.299757295e-06
0.001957478917
7.159670291e-06
0.001942119131
8.376038603e-06
0.001923613587
1.001439172e-05
0.001900975509
1.216676086e-05
0.001872966222
1.496399312e-05
0.001837979931
1.85957951e-05
0.001793876018
2.333679976e-05
0.001737767178
2.956793131e-05
0.001665816628
3.777032371e-05
0.001573153118
4.846433176e-05
0.00145403732
6.208446782e-05
0.001302357663
7.882843185e-05
0.00111239495
9.857050443e-05
0
0
0
0
0
0
0
0
0
0
0
0
0
0
0
0
0
0
0
0
0
0
0
0
0
0
0
0
0
0
0
0
0
-0
0.001111908772
-0
0.001301690632
-9.842208113e-05
0.001453160831
-7.866321554e-05
0.001572026631
-6.189504831e-05
0.001664385878
-4.824250351e-05
0.001735961732
-3.750668122e-05
0.001791605985
-2.925139568e-05
0.001835131635
-2.295405262e-05
0.001869396582
-1.813059893e-05
0.001896504857
-1.439636932e-05
0.001918016542
-1.147198451e-05
0.001935113066
-9.161744103e-06
0.001948709386
-7.327243799e-06
0.001959525408
-5.866922523e-06
0.001968132082
-4.703223261e-06
0.001974983286
-3.775295157e-06
0.001980439704
-3.034809698e-06
0.001984787651
-2.443288327e-06
0.001988254238
-1.9701451e-06
0.001991019573
-1.591123708e-06
0.001993226541
-1.287016439e-06
0.001994988578
-1.042618596e-06
0.00199639582
-8.458862405e-07
0.001997519962
-6.872662907e-07
0.001998418083
-5.591682263e-07
0.001999135662
-4.55549305e-07
0.001999708965
-3.715892604e-07
0.002000166926
-3.03435594e-07
0.002000532635
-2.480031772e-07
0.002000824525
-2.028165797e-07
0.002001057307
-1.658857753e-07
0.002001242716
-1.356073734e-07
0.002001390105
-1.106861742e-07
0.002001506912
-9.007300599e-08
0.002001599039
-7.291475319e-08
0.002001671144
-5.851400239e-08
0.002001726878
-4.629670571e-08
0.002001769064
-3.57858083e-08
0.002001799841
-2.657957691e-08
0.002001820772
-1.833348872e-08
0.00200183292
-1.074486402e-08
-3.539627169e-09
0.001992553176
1.493002193e-05
0.001982610956
1.569286207e-05
0.001971649389
1.726132474e-05
0.001959085678
1.972338057e-05
0.001944244693
2.321702352e-05
0.001926321537
2.793754798e-05
0.001904341032
3.414726562e-05
0.001877117189
4.218783666e-05
0.001843216821
5.249616271e-05
0.001800927226
6.562639484e-05
0.001748213463
8.228169394e-05
0.001682628754
0.0001033550327
0.001601132508
0.0001299605781
0.001499813905
0.0001634030708
0.001373642711
0.0002049996255
0.001216530499
0.0002556827166
0
0
0
0
0
0
0
0
0
0
0
0
0
0
0
0
0
0
0
0
0
0
0
0
0
0
0
0
0
0
0
0
0
-0
0.001216037307
-0
0.0013729857
-0.0002553704737
0.001498961592
-0.0002046391083
0.00160004302
-0.0001629764757
0.001681247896
-0.0001294473794
0.001746472139
-0.0001027309245
0.001798738043
-8.151729981e-05
0.001840469718
-6.468572766e-05
0.001873673889
-5.133476984e-05
0.001900028049
-4.07505294e-05
0.001920921365
-3.236530005e-05
0.001937484712
-2.572509107e-05
0.001950624165
-2.046669762e-05
0.001961057867
-1.630062412e-05
0.00196935188
-1.299723594e-05
0.001975951682
-1.037509762e-05
0.001981208079
-8.291206204e-06
0.001985397765
-6.632974626e-06
0.001988739392
-5.311772394e-06
0.001991406056
-4.257787703e-06
0.001993535013
-3.415973412e-06
0.001995235259
-2.742864226e-06
0.001996593458
-2.204084994e-06
0.001997678595
-1.772403357e-06
0.001998545635
-1.426208145e-06
0.001999238405
-1.148320049e-06
0.001999791877
-9.250607883e-07
0.002000233964
-7.455227234e-07
0.002000586956
-6.009949486e-07
0.002000868651
-4.845112701e-07
0.002001093257
-3.90492614e-07
0.002001272114
-3.144637814e-07
0.002001414256
-2.528287306e-07
0.002001526875
-2.026913272e-07
0.002001615672
-1.617120022e-07
0.002001685151
-1.279928023e-07
0.002001738839
-9.998472634e-08
0.002001779465
-7.64124455e-08
0.002001809098
-5.621255648e-08
0.002001829247
-3.848246171e-08
0.00200184094
-2.243717757e-08
-7.371855325e-09
0.001993594957
2.333506445e-05
0.001984758974
2.452884579e-05
0.001975036565
2.698373398e-05
0.00196392134
3.083860484e-05
0.001950825867
3.631249656e-05
0.001935045547
4.371786864e-05
0.001915714104
5.347870829e-05
0.001891748637
6.615330328e-05
0.001861784234
8.246056635e-05
0.001824103426
0.0001033072022
0.001776574095
0.0001298110247
0.001716615305
0.0001633138229
0.00164120192
0.000205373963
0.001546887004
0.0002577179873
0.001429783976
0.0003221026538
0.001285464897
0.0004000017949
0
0.0004893068291
0
0
0
0
0
0
0
0
0
0
0
0
0
0
0
0
0
0
0
0
0
0
0
0
0
0
0
0
0
0
0
-0
0.001285022706
-0.000488937
0.001429193756