/*--------------------------------*- C++ -*----------------------------------*\
| =========                 |                                                 |
| \\      /  F ield         | OpenFOAM Extend Project: Open source CFD        |
|  \\    /   O peration     | Version:  1.6-ext                               |
|   \\  /    A nd           | Web:      www.extend-project.de                 |
|    \\/     M anipulation  |                                                 |
\*---------------------------------------------------------------------------*/
FoamFile
{
    version     2.0;
    format      ascii;
    class       surfaceScalarField;
    location    "0";
    object      phi;
}
// * * * * * * * * * * * * * * * * * * * * * * * * * * * * * * * * * * * * * //

dimensions      [0 3 -1 0 0 0 0];

internalField   nonuniform List<scalar> 
5170
(
0.0020101907
-8.190700072e-06
0.002018755054
-8.564353941e-06
0.002028080263
-9.3252086e-06
0.002038580791
-1.050052804e-05
0.0020507124
-1.213160903e-05
0.002064986602
-1.427420185e-05
0.002081985587
-1.699898573e-05
0.002102377621
-2.039203387e-05
0.002126932838
-2.455521724e-05
0.002156539371
-2.960653275e-05
0.002192219759
-3.56803874e-05
0.002235147617
-4.292785883e-05
0.002286664358
-5.151674043e-05
0.002348294592
-6.163023408e-05
0.002421754636
-7.346004446e-05
0.002508935041
-8.718040503e-05
0.002611790861
-0.0001028558196
0.002730213305
-0.0001184224436
0.002869753761
-0.0001395404562
0.00301386672
-0.0001441129589
0.003191492232
-0.0001776255126
0.003332869324
-0.0001413770919
0.003447784681
-0.0001149153569
0.003571946948
-0.0001241622672
0.003572708145
-7.611964256e-07
0.003571965011
7.431337642e-07
0.003447823674
0.0001241413366
0.003332932763
0.0001148909112
0.003191590044
0.0001413427195
0.003014007247
0.0001775827966
0.002869948979
0.0001440582676
0.002730476493
0.0001394724863
0.002612137006
0.0001183394867
0.002509384709
0.0001027522974
0.002422333132
8.705157702e-05
0.002349033843
7.329928932e-05
0.002287604565
6.142927819e-05
0.002236339339
5.126522573e-05
0.002193726494
4.261284478e-05
0.002158440767
3.528572732e-05
0.002129328668
2.911209831e-05
0.002105392724
2.393594405e-05
0.002085775982
1.961674269e-05
0.002069747046
1.602893563e-05
0.002056685722
1.306132428e-05
0.002046069366
1.061635562e-05
0.002037460106
8.609259675e-06
0.00203049306
6.96704647e-06
0.002024865658
5.627401971e-06
0.002020328119
4.537539516e-06
0.002016675064
3.6530541e-06
0.002013738239
2.936825034e-06
0.002011380244
2.357995289e-06
0.002009489205
1.891039087e-06
0.00200797427
1.514935318e-06
0.002006761828
1.2124419e-06
0.002005792365
9.694626486e-07
0.002005017854
7.745110968e-07
0.002004399601
6.182530296e-07
0.002003906482
4.931188649e-07
0.002003513497
3.929852789e-07
0.002003200591
3.129057626e-07
0.0020029517
2.488907085e-07
0.002002753972
1.977279619e-07
0.002002597142
1.56830546e-07
0.002002473025
1.241165112e-07
0.002002375114
9.79110505e-08
0.00200229825
7.686392492e-08
0.002002238367
5.988328455e-08
0.002002192283
4.608370498e-08
0.002002157542
3.47418903e-08
0.002002132283
2.525873925e-08
0.002002115153
1.713026281e-08
0.00200210523
9.922768592e-09
3.249356164e-09
0.002009735557
-1.592625721e-05
0.002017829891
-1.665868747e-05
0.002026655519
-1.815083732e-05
0.002036612707
-2.045771529e-05
0.002048143974
-2.366287615e-05
0.00206174934
-2.787956791e-05
0.002078002453
-3.325209867e-05
0.002097567708
-3.995728892e-05
0.002121218379
-4.82058889e-05
0.002149855722
-5.824387543e-05
0.002184528988
-7.035365276e-05
0.002226456446
-8.485531742e-05
0.002277047808
-0.0001021081027
0.002337928827
-0.0001225112531
0.002410968897
-0.0001465001138
0.002498312683
-0.0001745241915
0.002602324055
-0.0002068671915
0.00272365365
-0.000239752039
0.002869608559
-0.0002854953646
0.00301759617
-0.0002921005701
0.003203309646
-0.0003633389887
0.003348087042
-0.0002861544885
0.003476477208
-0.000243305522
0.003607825374
-0.0002555104332
0.003613497478
-6.433300686e-06
0.003607840941
6.399670326e-06
0.003476511343
0.0002554709353
0.003348142845
0.0002432594086
0.003203397605
0.0002860879597
0.003017723908
0.0003632564936
0.002869788189
0.0002919939864
0.002723897473
0.0002853632027
0.002602645654
0.0002395913057
0.002498731454
0.0002066664974
0.002411508493
0.0001742745381
0.00233861913
0.0001461886516
0.002277926467
0.0001221219416
0.002227570842
0.0001016208504
0.002185938671
8.42450158e-05
0.002151635432
6.958896651e-05
0.002123461797
5.728573347e-05
0.002100392123
4.700561768e-05
0.002081554553
3.845431309e-05
0.002066212375
3.137111377e-05
0.002053746623
2.552707624e-05
0.002043640016
2.072296198e-05
0.002035462365
1.678691118e-05
0.002028857503
1.357190847e-05
0.002023531752
1.095315331e-05
0.002019243853
8.825438357e-06
0.002015796278
7.100628331e-06
0.002013027799
5.705304888e-06
0.002010807174
4.578620275e-06
0.00200902784
3.670372296e-06
0.002007603467
2.939308952e-06
0.002006464253
2.351655846e-06
0.002005553866
1.879849352e-06
0.002004826917
1.501460495e-06
0.002004246888
1.198281826e-06
0.002003784439
9.555673261e-07
0.002003416027
7.613978257e-07
0.00200312278
6.061522231e-07
0.002002889594
4.820768292e-07
0.002002704393
3.82929148e-07
0.002002557536
3.036876675e-07
0.002002441339
2.403130617e-07
0.002002349696
1.895541656e-07
0.002002277768
1.48791972e-07
0.002002221741
1.159104578e-07
0.002002178632
8.919264904e-08
0.002002146138
6.723583515e-08
0.002002122517
4.887948457e-08
0.0020021065
3.314777174e-08
0.002002097223
1.920007334e-08
6.286978074e-09
0.002008840659
-2.276691657e-05
0.002016009604
-2.382763197e-05
0.002023849054
-2.599028711e-05
0.002032729538
-2.933819986e-05
0.002043065145
-3.399848291e-05
0.002055330097
-4.014451958e-05
0.002070077109
-4.799911116e-05
0.002087957981
-5.783816122e-05
0.002109746817
-6.999472449e-05
0.002136366172
-8.48632305e-05
0.002168916265
-0.0001029037458
0.002208707439
-0.0001246464912
0.002257297143
-0.0001506978065
0.002316536151
-0.000181750261
0.002388636871
-0.0002186008339
0.002476300835
-0.0002621881558
0.002582577096
-0.0003131434521
0.002710406726
-0.000367581669
0.002869041653
-0.0004441302919
0.003025335561
-0.0004483944784
0.00322554919
-0.0005635526176
0.003381551968
-0.0004421572657
0.003534852813
-0.0003966063676
0.003680248222
-0.0004009058416
0.003695616966
-2.180204502e-05
0.00368025887
2.175776651e-05
0.003534877364
0.0004008524407
0.003381592751
0.0003965440223
0.003225617876
0.0004420628345
0.003025438355
0.0005634360144
0.002869190995
0.0004482413461
0.002710613029
0.0004439411695
0.002582851169
0.0003673531655
0.002476659759
0.0003128579067
0.002389101117
0.0002618331801
0.002317131624
0.0002181581454
0.002258056532
0.0001811970329
0.002209671956
0.0001500054272
0.002170137779
0.0001237791927
0.002137909874
0.0001018168714
0.002111694531
8.350107597e-05
0.002090412292
6.828785733e-05
0.002073166498
5.570010636e-05
0.00205921534
4.532227171e-05
0.002047947249
3.679516725e-05
0.002038859587
2.981062447e-05
0.002031540405
2.410609334e-05
0.002025652963
1.945935019e-05
0.002020922676
1.568344055e-05
0.002017126155
1.262195882e-05
0.002014082056
1.014472749e-05
0.002011643456
8.143905279e-06
0.00200969154
6.530536405e-06
0.002008130385
5.231527207e-06
0.002006882666
4.187027293e-06
0.002005886138
3.348184701e-06
0.002005090751
2.675235652e-06
0.002004456316
2.135895431e-06
0.002003950587
1.704011001e-06
0.002003547719
1.358435253e-06
0.002003227019
1.082098481e-06
0.002002971928
8.612425192e-07
0.002002769215
6.847903901e-07
0.002002608311
5.438328739e-07
0.002002480791
4.312074925e-07
0.002002379948
3.411558672e-07
0.002002300455
2.690475395e-07
0.002002238093
2.111539381e-07
0.002002189539
1.644643934e-07
0.002002152196
1.265360835e-07
0.002002124058
9.537322977e-08
0.002002103611
6.932688763e-08
0.002002089748
4.701015368e-08
0.002002081721
2.72277853e-08
8.915333837e-09
0.002007538276
-2.830519267e-05
0.002013357582
-2.964693785e-05
0.002019752717
-3.238542183e-05
0.002027046654
-3.663213709e-05
0.002035606267
-4.255809616e-05
0.002045860134
-5.039838654e-05
0.00205831933
-6.045830676e-05
0.002073602371
-7.312120251e-05
0.002092465929
-8.885828212e-05
0.002115843718
-0.0001082410199
0.002144897115
-0.0001319571431
0.002181081641
-0.0001608310168
0.002226230923
-0.0001958470885
0.002282652178
-0.0002381715162
0.002353227131
-0.0002891757871
0.002441567452
-0.0003505284766
0.002551145576
-0.0004227215763
0.002690060799
-0.0005064968913
0.002866722049
-0.0006207915428
0.003037083421
-0.0006187558494
0.003257078998
-0.0007835481951
0.00343976123
-0.0006248394982
0.003625970222
-0.0005828153588
0.003789576896
-0.000564512516
0.003818393697
-5.061884631e-05
0.003789580323
5.057114113e-05
0.003625980713
0.0005644520504
0.003439780067
0.0005827446685
0.003257119795
0.0006247231064
0.003037150329
0.0007834054802
0.002866828103
0.0006185635717
0.002690213739
0.0006205555338
0.002551352163
0.0005062147416
0.002441841334
0.0004223687362
0.00235358433
0.000350090184
0.002283112896
0.0002886295788
0.002226820763
0.0002374891658
0.002181832997
0.0001949931931
0.002145850887
0.0001597613035
0.00211705144
0.0001306163178
0.002093992445
0.0001065600715
0.002075529175
8.675112687e-05
0.002060748754
7.04805279e-05
0.002048920592
5.71504337e-05
0.002039458819
4.625693949e-05
0.002031893222
3.737622185e-05
0.002025846352
3.015296382e-05
0.002021015301
2.429040128e-05
0.002017157094
1.954164706e-05
0.002014076945
1.570210822e-05
0.002011618793
1.260287928e-05
0.002009657683
1.010501562e-05
0.002008093618
8.094600833e-06
0.002006846618
6.478527541e-06
0.002005852736
5.180908848e-06
0.002005060869
4.140052064e-06
0.002004430186
3.305918868e-06
0.002003928076
2.638005092e-06
0.002003528503
2.103584055e-06
0.002003210683
1.676255036e-06
0.002002958033
1.334748518e-06
0.002002757326
1.061949715e-06
0.002002598017
8.44099231e-07
0.002002471707
6.701428477e-07
0.002002371711
5.312039296e-07
0.002002292714
4.201527615e-07
0.002002230502
3.312597289e-07
0.002002181741
2.599140301e-07
0.002002143811
2.023945447e-07
0.002002114662
1.556849672e-07
0.002002092715
1.173208847e-07
0.002002076776
8.526606209e-08
0.002002065975
5.781029834e-08
0.002002059723
3.347981097e-08
1.096193448e-08
0.002005880036
-3.218522914e-05
0.00200997615
-3.374305135e-05
0.00201451723
-3.692650206e-05
0.002019758576
-4.187348286e-05
0.002025997113
-4.879663284e-05
0.002033589171
-5.799044532e-05
0.002042971925
-6.984106034e-05
0.002054689663
-8.48389407e-05
0.002069425899
-0.0001035945176
0.00208804144
-0.0001268565614
0.002111617199
-0.0001555329022
0.002141501626
-0.0001907154435
0.002179377124
-0.0002337225869
0.002227409694
-0.0002862040861
0.00228864778
-0.0003504138731
0.002367930322
-0.000429811018
0.00247053414
-0.0005253253942
0.002620606582
-0.0006565693332
0.002827305494
-0.0008274904549
0.003046824331
-0.0008382746866
0.003336040366
-0.00107276423
0
-0
0
-0
0
-0
0
-0
0
0
0
0
0
0
0.003336032034
0
0.003046838969
0.001072598545
0.002827354344
0.0008380481968
0.002620692217
0.0008272176611
0.002470657124
0.0006562498344
0.002368099193
0.0005249266669
0.002288873011
0.0004293163659
0.002227704258
0.0003497983322
0.002179757778
0.0002854356459
0.00214198981
0.0002327611609
0.002112240183
0.0001895109307
0.002088833777
0.0001540227235
0.002070431277
0.0001249625719
0.002055963244
0.0001012191593
0.002044583312
8.186046053e-05
0.002035626163
6.610758275e-05
0.002028570468
5.33126343e-05
0.002023008063
4.293862708e-05
0.002018619309
3.454171708e-05
0.002015153756
2.775595458e-05
0.002012415034
2.228036864e-05
0.002010249073
1.786807008e-05
0.002008534889
1.43170629e-05
0.002007177399
1.146250512e-05
0.002006101798
9.170202375e-06
0.002005249168
7.331157615e-06
0.002004573053
5.857023683e-06
0.002004036781
4.676323975e-06
0.002003611371
3.731328789e-06
0.002003273896
2.975479836e-06
0.002003006204
2.371277001e-06
0.002002793908
1.888550375e-06
0.002002625604
1.503052395e-06
0.002002492243
1.195310853e-06
0.002002386645
9.496969952e-07
0.002002303115
7.5367329e-07
0.002002237135
5.971841388e-07
0.002002185125
4.721623001e-07
0.002002144254
3.721310058e-07
0.002002112286
2.918817421e-07
0.002002087468
2.27212766e-07
0.002002068432
1.747211338e-07
0.002002054123
1.316295809e-07
0.002002043746
9.564325075e-08
0.002002036722
6.483407838e-08
0.002002032659
3.754258142e-08
1.229138999e-08
0.00200393939
-3.412461922e-05
0.002006012185
-3.581584648e-05
0.002008362566
-3.927688243e-05
0.002011157121
-4.466803856e-05
0.002014598257
-5.223776811e-05
0.002018940408
-6.233259647e-05
0.002024510403
-7.541105518e-05
0.002031734036
-9.20625745e-05
0.002041172817
-0.0001130332986
0.002053579114
-0.0001392628584
0.002069985988
-0.0001719397762
0.002091858991
-0.0002125884458
0.002121342888
-0.0002632064842
0.002161612424
-0.0003264736225
0.002217236451
-0.0004060379
0.002294250947
-0.0005068255137
0.002394290158
-0.000625364605
0.002554526947
-0.0008168061227
0.002756858199
-0.001029821707
0
-0
0
-0
0
-0
0
0
0
0
0
0
0
0
0
0
0
0
0
0
0
0
0.002756835835
0
0.002554533005
0.001029520491
0.002394316973
0.0008164658668
0.002294300108
0.0006249435321
0.00221731226
0.0005063042134
0.002161719385
0.000405391207
0.002121487572
0.000325667459
0.002092050307
0.000262198426
0.002070235652
0.0002113255853
0.002053902313
0.0001703560631
0.002041589093
0.0001372757915
0.002032268448
0.000110539805
0.002025195034
8.893387372e-05
0.002019816349
7.148626857e-05
0.002015718184
5.741079904e-05
0.002012588697
4.606811359e-05
0.00201019291
3.693750444e-05
0.002008353781
2.959508305e-05
0.002006937918
2.369623195e-05
0.002005844745
1.896124368e-05
0.002004998322
1.51634858e-05
0.00200434119
1.211963703e-05
0.002003829751
9.681641059e-06
0.002003430819
7.730089871e-06
0.002003119041
6.168801361e-06
0.002002874978
4.920386934e-06
0.002002683669
3.922638423e-06
0.002002533556
3.12559191e-06
0.002002415685
2.489148287e-06
0.00200232309
1.981145993e-06
0.002002250339
1.575802796e-06
0.002002193191
1.252459243e-06
0.002002148321
9.945671574e-07
0.002002113121
7.888728672e-07
0.002002085546
6.24759406e-07
0.002002063987
4.937207122e-07
0.002002047184
3.889340749e-07
0.002002034149
3.049171515e-07
0.002002024108
2.372531475e-07
0.002002016464
1.82365425e-07
0.002002010758
1.373358108e-07
0.002002006645
9.975637465e-08
0.002002003874
6.760472196e-08
0.002002002277
3.913975547e-08
1.28130017e-08
0.002001812991
-3.393761061e-05
0.002001660251
-3.566310623e-05
0.002001583488
-3.920011966e-05
0.002001640277
-4.472482725e-05
0.002001914579
-5.251206984e-05
0.002002530785
-6.294880287e-05
0.002003673204
-7.655347414e-05
0.002005613511
-9.40028813e-05
0.002008748957
-0.0001161687451
0.002013653395
-0.0001441672964
0.002021141241
-0.0001794276217
0.002032342721
-0.000223789926
0.002048786755
-0.0002796505179
0.002072471687
-0.0003501585548
0.002105843496
-0.0004394097084
0.002151506792
-0.0005524888103
0.002204363745
-0.0006782215575
0.002329126647
-0.0009415690247
0
-0
0
-0
0
-0
0
0
0
0
0
0
0
0
0
0
0
0
0
0
0
0
0
0
0
0
0.002329049423
0
0.002204290317
0.0009412249722
0.002151430862
0.0006778029872
0.002105763481
0.0005519715946
0.002072382801
0.0004387718874
0.002048684577
0.0003493656827
0.002032222817
0.0002786601857
0.00202099886
0.000222549543
0.002013483219
0.0001778717039
0.002008544901
0.0001422141096
0.00200536857
0.0001137161351
0.002003379359
9.092308482e-05
0.002002178984
7.268664423e-05
0.00200149486
5.809492244e-05
0.002001142122
4.642085158e-05
0.002000996534
3.708309273e-05
0.002000975586
2.961603147e-05
0.002001025348
2.364646953e-05
0.002001111318
1.887527408e-05
0.002001212042
1.506276169e-05
0.002001314705
1.2016974e-05
0.002001412102
9.584243676e-06
0.002001500592
7.6416003e-06
0.002001578728
6.090665535e-06
0.002001646364
4.852750747e-06
0.002001704077
3.864925449e-06
0.002001752801
3.076867524e-06
0.002001793608
2.448341291e-06
0.002001827575
1.947178643e-06
0.002001855715
1.547663063e-06
0.002001878939
1.229235814e-06
0.002001898044
9.754615874e-07
0.002001913718
7.73199508e-07
0.002001926538
6.119389123e-07
0.00200193699
4.832686321e-07
0.002001945475
3.804496052e-07
0.002001952319
2.980723116e-07
0.002001957791
2.317816232e-07
0.002001962102
1.780538495e-07
0.002001965422
1.340162303e-07
0.002001967879
9.729937625e-08
0.002001969569
6.591462842e-08
0.002001970558
3.815125662e-08
1.248776538e-08
0.001999620829
-3.15584398e-05
0.001997163035
-3.320531156e-05
0.001994550098
-3.658718321e-05
0.001991710422
-4.188515121e-05
0.001988581479
-4.938312633e-05
0.00198511574
-5.948306444e-05
0.001981288636
-7.272637039e-05
0.001977109
-8.982324452e-05
0.001972634003
-0.0001116937481
0.001967993859
-0.0001395271533
0.001963432812
-0.0001748665737
0.001959358727
-0.0002197158415
0.00195634485
-0.0002766366407
0.001954954981
-0.0003487686863
0.001955272466
-0.0004397271929
0.001956275653
-0.0005534919976
0.001948460408
-0.0006704063119
0.00203354436
-0.001026652977
0
-0
0
0
0
0
0
0
0
0
0
0
0
0
0
0
0
0
0
0
0
0
0
0
0
0
0.002033389402
0
0.001948290866
0.001026323509
0.001956077123
0.0006700167301
0.001955039217
0.0005530095002
0.001954673397
0.0004391377078
0.00195599977
0.0003480393096
0.001958932481
0.000275727474
0.001962904226
0.0002185777986
0.001967337145
0.000173438785
0.001971817472
0.0001377337827
0.001976093561
0.0001094400458
0.001980026013
8.699063258e-05
0.001983546357
6.916630104e-05
0.001986631953
5.500932588e-05
0.001989290622
4.376218283e-05
0.00199154972
3.482399487e-05
0.001993447714
2.77180367e-05
0.001995027845
2.206633877e-05
0.001996333724
1.756939567e-05
0.001997406588
1.398989736e-05
0.001998283816
1.113974593e-05
0.001998998307
8.869752327e-06
0.001999578415
7.061492305e-06
0.002000048197
5.620883721e-06
0.002000427825
4.473122698e-06
0.002000734061
3.558690085e-06
0.00200098073
2.830198104e-06
0.002001179174
2.249897113e-06
0.002001338652
1.787701198e-06
0.002001466692
1.419622785e-06
0.002001569398
1.126529515e-06
0.002001651704
8.931559904e-07
0.002001717586
7.073171729e-07
0.002001770244
5.592813919e-07
0.002001812242
4.412704196e-07
0.002001845632
3.470592957e-07
0.002001872048
2.716562661e-07
0.002001892784
2.110459497e-07
0.002001908855
1.619823262e-07
0.002001921051
1.218211764e-07
0.002001929967
8.838317989e-08
0.002001936041
5.984052056e-08
0.00200193957
3.462179213e-08
1.13301508e-08
0.001997505447
-2.70638868e-05
0.001992811611
-2.851147529e-05
0.001987714151
-3.148972317e-05
0.001981999494
-3.61704943e-05
0.001975442682
-4.282631436e-05
0.001967808738
-5.184912049e-05
0.001958858906
-6.377653857e-05
0.001948360939
-7.932527728e-05
0.001936095535
-9.942834441e-05
0.001921836178
-0.0001252677963
0.001905259711
-0.0001582901063
0.001885739227
-0.0002001953579
0.001862020504
-0.0002529179181
0.001831921602
-0.0003186697839
0.001792355786
-0.0004001613769
0.001739904542
-0.0005010407533
0.001668647248
-0.0005991490183
0
-0
0
-0
0
0
0
0
0
0
0
0
0
0
0
0
0
0
0
0
0
0
0
0
0
0
0
0
0
0
0.001668429693
0
0.001739618061
0.0005988283623
0.001791996663
0.0005006308977
0.001831471538
0.0003996628331
0.001861456843
0.0003180540043
0.001885033643
0.0002521506739
0.001904376751
0.0001992346907
0.001920731539
0.0001570839976
0.001934713922
0.0001237513993
0.001946633387
9.752058039e-05
0.001956699436
7.692458414e-05
0.001965110212
6.0755525e-05
0.001972071706
4.804783191e-05
0.001977790156
3.804373309e-05
0.001982460363
3.015378769e-05
0.001986257789
2.392061059e-05
0.001989335233
1.898889488e-05
0.001991822734
1.508189448e-05
0.001993829248
1.198338313e-05
0.001995445086
9.523907956e-06
0.001996744532
7.570306438e-06
0.001997788344
6.017680922e-06
0.001998626002
4.783225711e-06
0.001999297668
3.801456018e-06
0.001999835853
3.020504895e-06
0.002000266814
2.399237497e-06
0.002000611717
1.904993819e-06
0.0020008876
1.511818421e-06
0.002001108155
1.1990676e-06
0.002001284374
9.50310672e-07
0.002001425068
7.524618088e-07
0.002001537293
5.950923429e-07
0.002001626689
4.69885109e-07
0.002001697759
3.70200639e-07
0.002001754087
2.907313234e-07
0.002001798518
2.272256278e-07
0.002001833297
1.762669086e-07
0.002001860183
1.350958272e-07
0.002001880538
1.014668552e-07
0.00200189539
7.353076416e-08
0.002001905493
4.97380404e-08
0.002001911356
2.875787034e-08
9.407955498e-09
0.001995626552
-2.069043832e-05
0.001988934671
-2.181959443e-05
0.001981589831
-2.414488317e-05
0.001973224215
-2.780487892e-05
0.001963417143
-3.301924226e-05
0.001951671534
-4.010351091e-05
0.001937384704
-4.948970888e-05
0.001919812621
-6.175319479e-05
0.001898029994
-7.764571749e-05
0.001870895491
-9.81332929e-05
0.001837039644
-0.0001244342595
0.00179489161
-0.0001580473235
0.001742727531
-0.0002007538389
0.001678633597
-0.0002545758506
0.001600134904
-0.0003216626831
0.001503131888
-0.0004040377378
0.001387421421
-0.0004834385509
0
-0
0
0
0
0
0
0
0
0
0
0
0
0
0
0
0
0
0
0
0
0
0
0
0
0
0
0
0
0
0.001387140041
0
0.001502758917
0.0004832094868
0.001599665158
0.0004037246561
0.001678041157
0.0003212868337
0.001741980625
0.0002541145364
0.001793951191
0.0002001801088
0.001835857324
0.0001573285567
0.001869410923
0.0001235303992
0.001896167662
9.699466019e-05
0.00191747793
7.621031194e-05
0.001934459166
5.99433486e-05
0.001948006786
4.720790512e-05
0.001958827496
3.722712166e-05
0.001967477354
2.939387562e-05
0.001974395207
2.323593448e-05
0.001979929019
1.838679853e-05
0.001984355807
1.456210679e-05
0.001987896725
1.154097679e-05
0.001990728624
9.151483392e-06
0.001992993059
7.259473439e-06
0.001994803373
5.759992321e-06
0.001996250335
4.570719307e-06
0.001997406627
3.62693332e-06
0.001998330442
2.877640833e-06
0.00199906836
2.282587589e-06
0.001999657653
1.809943877e-06
0.002000128142
1.434504873e-06
0.002000503674
1.136286964e-06
0.002000803312
8.994291786e-07
0.002001042292
7.113310603e-07
0.00200123278
5.619738649e-07
0.002001384487
4.433852443e-07
0.002001505156
3.492159428e-07
0.002001600953
2.74403834e-07
0.002001676776
2.149074583e-07
0.002001736509
1.674934317e-07
0.002001783209
1.295665253e-07
0.002001819271
9.903349765e-08
0.002001846545
7.419298898e-08
0.00200186643
5.364594359e-08
0.002001879946
3.622167977e-08
0.002001887788
2.091607042e-08
6.838026816e-09
0.00199415108
-1.284151865e-05
0.001985886631
-1.355514478e-05
0.001976766405
-1.502465725e-05
0.001966298708
-1.733718235e-05
0.001953909493
-2.063002663e-05
0.001938904861
-2.509887899e-05
0.001920424243
-3.100909111e-05
0.001897381252
-3.871020402e-05
0.001868389759
-4.865422445e-05
0.001831676503
-6.142003644e-05
0.001784993228
-7.775098459e-05
0.001725562562
-9.861665745e-05
0.001650105455
-0.0001252967322
0.001554956703
-0.0001594270985
0.001436141238
-0.0002028472178
0.001289140101
-0.000257036601
0
-0
0
-0
0
0
0
0
0
0
0
0
0
0
0
0
0
0
0
0
0
0
0
0
0
0
0
0
0
0
0
0
0
0
0.001288746663
0
0.001435613789
0.0002568575301
0.001554270467
0.0002026301556
0.001649226838
0.0001591581656
0.00172444759
0.0001249593564
0.001783585433
9.819071378e-05
0.001829904136
7.72116968e-05
0.00186616218
6.073661544e-05
0.001894584316
4.778817659e-05
0.001916914444
3.761322014e-05
0.001934501951
2.962039859e-05
0.001948387168
2.334190421e-05
0.001959372875
1.840816859e-05
0.001968080371
1.452843818e-05
0.001974992404
1.14747664e-05
0.001980485689
9.06882147e-06
0.001984855448
7.171217202e-06
0.001988333914
5.673017711e-06
0.001991104348
4.48903947e-06
0.001993311737
3.552603553e-06
0.001995071013
2.811442703e-06
0.001996473427
2.224520028e-06
0.001997591507
1.759560284e-06
0.001998482959
1.391135712e-06
0.001999193722
1.099181018e-06
0.001999760388
8.678388723e-07
0.002000212114
6.845610179e-07
0.002000572137
5.394063279e-07
0.002000858977
4.244913571e-07
0.002001087392
3.335588573e-07
0.002001269139
2.616381123e-07
0.002001413577
2.04777183e-07
0.00200152815
1.598310685e-07
0.002001618764
1.242933879e-07
0.002001690095
9.616306641e-08
0.002001745824
7.383747906e-08
0.00200178883
5.602689802e-08
0.002001821337
4.168588452e-08
0.002001845026
2.99572886e-08
0.002001861122
2.01259885e-08
0.002001870458
1.158030562e-08
3.77889448e-09
0.001993215669
-4.057188032e-06
0.001983955807
-4.295282886e-06
0.001973716215
-4.78506453e-06
0.001961933257
-5.554224235e-06
0.001947948853
-6.645623117e-06
0.001930969252
-8.119277425e-06
0.001910016659
-1.005649813e-05
0.001883875736
-1.256928133e-05
0.001851042032
-1.582052022e-05
0.001809682964
-2.006096919e-05
0.001757612778
-2.568079806e-05
0.001692246943
-3.325082282e-05
0.001610447947
-4.349773568e-05
0.001508171166
-5.715031799e-05
0.001379972181
-7.464823258e-05
0.001218744297
-9.580871729e-05
0
-0
0
-0
0
0
0
0
0
0
0
0
0
0
0
0
0
0
0
0
0
0
0
0
0
0
0
0
0
0
0
0
0
0
0.001218316512
0
0.001379396347
9.577769525e-05
0.00150741986
7.460664238e-05
0.001609484101
5.70939244e-05
0.001691022079
4.342137891e-05
0.001756064571
3.314822115e-05
0.001807732081
2.554418756e-05
0.001848588073
1.988062323e-05
0.001880792088
1.558416193e-05
0.00190614394
1.22613679e-05
0.001926107008
9.657330366e-06
0.001941845036
7.603876078e-06
0.001954270903
5.982301401e-06
0.001964096573
4.702768949e-06
0.001971876923
3.694415774e-06
0.001978045171
2.90057386e-06
0.001982940416
2.275972081e-06
0.001986828787
1.784646608e-06
0.001989919646
1.398180656e-06
0.001992378048
1.094201904e-06
0.001994334361
8.551291268e-07
0.001995891728
6.671531436e-07
0.001997131864
5.194239729e-07
0.00199811959
4.034097021e-07
0.001998906377
3.123947354e-07
0.001999533127
2.410881e-07
0.002000032371
1.853173277e-07
0.002000429988
1.417896625e-07
0.002000746574
1.079052352e-07
0.002000998522
8.161033715e-08
0.002001198878
6.128228102e-08
0.002001358017
4.563878921e-08
0.002001484181
3.366639984e-08
0.002001583911
2.456363225e-08
0.002001662378
1.769632265e-08
0.002001723653
1.25619381e-08
0.002001770919
8.760806412e-09
0.002001806632
5.97333269e-09
0.002001832648
3.941572248e-09
0.00200185032
2.453828693e-09
0.002001860568
1.332031869e-09
4.21058085e-10
0.001992901338
5.041473796e-06
0.00198330913
5.296925395e-06
0.001972701748
5.8223174e-06
0.00196050026
6.647264063e-06
0.001946036803
7.817833825e-06
0.00192851861
9.398915017e-06
0.001906983277
1.147883511e-05
0.001880234722
1.41792739e-05
0.001846738286
1.767591543e-05
0.001804441838
2.223547847e-05
0.001750494761
2.826627919e-05
0.001680887994
3.635594418e-05
0.00159015195
4.723830903e-05
0.001471375027
6.162660478e-05
0.001316805681
7.992111333e-05
0.001119046593
0.0001019503701
0
0
0
0
0
0
0
0
0
0
0
0
0
0
0
0
0
0
0
0
0
0
0
0
0
0
0
0
0
0
0
0
0
-0
0.001118621823
-0
0.0013162222
-0.0001018226824
0.001470607481
-7.977863859e-05
0.001589163927
-6.146252071e-05
0.001679630421
-4.704511526e-05
0.001748903731
-3.612508891e-05
0.001802435614
-2.798769592e-05
0.001844213264
-2.189702693e-05
0.001877060149
-1.726272259e-05
0.001902994467
-1.367294987e-05
0.001923508316
-1.085651906e-05
0.001939744281
-8.63208872e-06
0.00195259741
-6.870827364e-06
0.001962775538
-5.475359277e-06
0.001970839284
-4.369330555e-06
0.001977231977
-3.492118462e-06
0.001982303553
-2.795604786e-06
0.001986329954
-2.241753633e-06
0.001989528742
-1.800607976e-06
0.001992071562
-1.448618007e-06
0.001994093966
-1.167274171e-06
0.001995703132
-9.420133126e-07
0.001996983913
-7.613570674e-07
0.001998003562
-6.162392725e-07
0.00199881544
-4.994830651e-07
0.001999461923
-4.053947481e-07
0.001999976688
-3.294476941e-07
0.002000386513
-2.680359284e-07
0.0020007127
-2.182815029e-07
0.002000972194
-1.778831824e-07
0.002001178473
-1.449972984e-07
0.002001342256
-1.181437843e-07
0.002001472054
-9.613174731e-08
0.002001574618
-7.800007274e-08
0.002001655284
-6.297033599e-08
0.002001718255
-5.040898909e-08
0.002001766813
-3.9796646e-08
0.002001803489
-3.070356965e-08
0.002001830201
-2.276952435e-08
0.002001848341
-1.568685492e-08
0.00200185886
-9.186342788e-09
-3.024981256e-09
0.001993228908
1.381256617e-05
0.001983983204
1.454262858e-05
0.001973759852
1.604566942e-05
0.001961996867
1.841024999e-05
0.001948038544
2.177615669e-05
0.001931094429
2.634303013e-05
0.001910191041
3.238222222e-05
0.001884118366
4.025194922e-05
0.001851378278
5.041600394e-05
0.001810145729
6.346802687e-05
0.001758244017
8.016799149e-05
0.001693097695
0.000101502266
0.001611567541
0.000128768463
0.001509558399
0.0001636357471
0.001381443013
0.0002080364991
0.001219712267
0.0002636811166
0
0
0
0
0
0
0
0
0
0
0
0
0
0
0
0
0
0
0
0
0
0
0
0
0
0
0
0
0
0
0
0
0
-0
0.001219283453
-0
0.001380870426
-0.0002634096556
0.001508813778
-0.0002077219907
0.001610613119
-0.0001632618614
0.001691884504
-0.0001283165006
0.001756709506
-0.0001009500911
0.001808210566
-7.94887559e-05
0.001848942227
-6.26286872e-05
0.001881055065
-4.937556052e-05
0.001906341406
-3.895929134e-05
0.001926258329
-3.07734417e-05
0.001941964278
-2.433803794e-05
0.00195436785
-1.927439919e-05
0.001964177754
-1.528526374e-05
0.001971946563
-1.213813908e-05
0.001978105956
-9.651511293e-06
0.001982994067
-7.68371657e-06
0.001986876446
-6.124131978e-06
0.001989962114
-4.886276267e-06
0.001992415933
-3.902436776e-06
0.001994368157
-3.119498877e-06
0.001995921859
-2.49571524e-06
0.001997158707
-1.998205126e-06
0.001998143486
-1.601018106e-06
0.001998927637
-1.283633409e-06
0.001999552036
-1.029794346e-06
0.002000049189
-8.266005409e-07
0.002000444952
-6.637993159e-07
0.002000759902
-5.332306396e-07
0.00200101041
-4.283912044e-07
0.002001209503
-3.440910516e-07
0.002001367542
-2.761822036e-07
0.002001492754
-2.213437026e-07
0.002001591665
-1.769111996e-07
0.002001669435
-1.407409049e-07
0.002001730127
-1.111006571e-07
0.002001776913
-8.658269925e-08
0.002001812242
-6.60328815e-08
0.002001837966
-4.849304035e-08
0.002001855433
-3.315338983e-08
0.002001865559
-1.931244026e-08
-6.342289088e-09
0.001994176333
2.163623282e-05
0.00198593847
2.278049227e-05
0.001976847984
2.513615463e-05
0.001966416097
2.884213791e-05
0.00195407356
3.411869316e-05
0.001939134147
4.128244317e-05
0.001920748756
5.076761306e-05
0.001897846619
6.315408657e-05
0.001869060319
7.92023042e-05
0.001832634955
9.989339079e-05
0.001786332836
0.00012647011
0.001727363337
0.0001604717649
0.001652375211
0.0002037565895
0.001557507732
0.0002585032256
0.001438395247
0.0003271489842
0.001289961168
0.0004121151957
0
0.0004975686469
0
0
0
0
0
0
0
0
0
0
0
0
0
0
0
0
0
0
0
0
0
0
0
0
0
0
0
0
0
0
0
-0
0.001289577649
-0.0004972448109
0.001437881271