/*--------------------------------*- C++ -*----------------------------------*\
| =========                 |                                                 |
| \\      /  F ield         | OpenFOAM Extend Project: Open source CFD        |
|  \\    /   O peration     | Version:  1.6-ext                               |
|   \\  /    A nd           | Web:      www.extend-project.de                 |
|    \\/     M anipulation  |                                                 |
\*---------------------------------------------------------------------------*/
FoamFile
{
    version     2.0;
    format      ascii;
    class       volVectorField;
    location    "0";
    object      U;
}
// * * * * * * * * * * * * * * * * * * * * * * * * * * * * * * * * * * * * * //

dimensions      [0 1 -1 0 0 0 0];

internalField   nonuniform List<vector> 
2675
(
(1.00216574 -0.002167905684 0)
(1.006590554 -0.002261333211 0)
(1.011298449 -0.002451269518 0)
(1.016488433 -0.002743905038 0)
(1.022375046 -0.003148593886 0)
(1.029194751 -0.003677931046 0)
(1.037212516 -0.004347851818 0)
(1.046728612 -0.005177760424 0)
(1.058085726 -0.006190709998 0)
(1.071676526 -0.007413681094 0)
(1.087951977 -0.008878045628 0)
(1.107430896 -0.01062035173 0)
(1.130711571 -0.01268360429 0)
(1.158486609 -0.01511920867 0)
(1.19156235 -0.01798960834 0)
(1.230884205 -0.02137156824 0)
(1.277535572 -0.02532644996 0)
(1.332363975 -0.0295567823 0)
(1.397314888 -0.03545908132 0)
(1.468653766 -0.03595113539 0)
(1.549590653 -0.04506668807 0)
(1.62989174 -0.03531470061 0)
(1.695517995 -0.03037718006 0)
(1.757320038 -0.03148666512 0)
(1.789670257 -0.0008959040525 0)
(1.789675515 0.0008906408812 0)
(1.757336657 0.03148055548 0)
(1.695547796 0.03037009494 0)
(1.629938617 0.03530469318 0)
(1.549659819 0.04505438291 0)
(1.46875104 0.03593530541 0)
(1.397447475 0.03543956299 0)
(1.332539701 0.0295331186 0)
(1.277764342 0.02529701604 0)
(1.231178842 0.02133506906 0)
(1.191938784 0.01794422945 0)
(1.158964836 0.01506269248 0)
(1.131316655 0.01261313672 0)
(1.108194207 0.01053243361 0)
(1.088912722 0.008768332416 0)
(1.072883634 0.007276785255 0)
(1.059600174 0.006019958125 0)
(1.048626293 0.004964896622 0)
(1.039587758 0.004082677217 0)
(1.032164637 0.003347866664 0)
(1.026084697 0.002738153009 0)
(1.021117451 0.002234060156 0)
(1.017068743 0.00181869645 0)
(1.013775825 0.00147751434 0)
(1.011102911 0.001198072604 0)
(1.008937202 0.0009698024464 0)
(1.007185369 0.0007837822964 0)
(1.005770477 0.0006325247045 0)
(1.004629315 0.000509778118 0)
(1.003710108 0.0004103480537 0)
(1.002970563 0.000329936853 0)
(1.002376218 0.0002650023136 0)
(1.001899058 0.0002126351291 0)
(1.001516352 0.0001704531297 0)
(1.001209695 0.0001365107817 0)
(1.000964207 0.0001092232162 0)
(1.000767878 8.730187902e-05 0)
(1.000611032 6.970096741e-05 0)
(1.000485883 5.557303396e-05 0)
(1.000386178 4.423195401e-05 0)
(1.000306903 3.512258018e-05 0)
(1.000244048 2.779516826e-05 0)
(1.000194416 2.188562886e-05 0)
(1.000155472 1.709815255e-05 0)
(1.000125213 1.319113088e-05 0)
(1.000102078 9.966596313e-06 0)
(1.000084869 7.259574705e-06 0)
(1.000072691 4.930548187e-06 0)
(1.000064909 2.858915683e-06 0)
(1.000061118 9.366464427e-07 0)
(1.002048424 -0.006386284175 0)
(1.006235256 -0.006663212194 0)
(1.0106952 -0.007226397196 0)
(1.015620926 -0.008094603052 0)
(1.021221164 -0.00929623384 0)
(1.02772747 -0.01086962794 0)
(1.035401295 -0.01286343638 0)
(1.044541464 -0.01533709715 0)
(1.05549213 -0.01836146086 0)
(1.06865135 -0.02201970083 0)
(1.084480537 -0.02640876862 0)
(1.103515319 -0.03164184297 0)
(1.126378841 -0.03785245407 0)
(1.153799455 -0.04520120702 0)
(1.186636539 -0.05388634756 0)
(1.225922527 -0.06416127965 0)
(1.272847157 -0.07620631143 0)
(1.328698158 -0.08946700485 0)
(1.395918621 -0.1078524058 0)
(1.469803714 -0.1089270065 0)
(1.553464539 -0.1368531259 0)
(1.636907739 -0.107436295 0)
(1.706653982 -0.09376345546 0)
(1.772403157 -0.09577915868 0)
(1.80710975 -0.003727279206 -1.74018339e-34)
(1.807114287 0.003712211258 -1.740187759e-34)
(1.772417642 0.09576152254 0)
(1.706680163 0.09374299468 0)
(1.636949554 0.1074069219 0)
(1.553527156 0.1368170505 0)
(1.469892781 0.1088803351 0)
(1.396041099 0.1077949352 0)
(1.328861223 0.0893974845 0)
(1.273059984 0.0761198248 0)
(1.226197146 0.06405404588 0)
(1.186987865 0.05375304159 0)
(1.154246216 0.04503519278 0)
(1.126944527 0.03764545693 0)
(1.104229354 0.03138357185 0)
(1.085379719 0.02608644406 0)
(1.069781637 0.02161747147 0)
(1.056910838 0.01785968596 0)
(1.046319982 0.01471147026 0)
(1.037628433 0.01208391774 0)
(1.030513569 0.009899148376 0)
(1.024703141 0.008089129299 0)
(1.019968441 0.006594731762 0)
(1.016118186 0.005364886887 0)
(1.012993066 0.004355780546 0)
(1.010460921 0.003530070194 0)
(1.00841252 0.002856129069 0)
(1.006757886 0.002307329157 0)
(1.005423133 0.00186137262 0)
(1.004347762 0.001499678923 0)
(1.003482366 0.001206835171 0)
(1.002786689 0.0009701075047 0)
(1.002228005 0.0007790137436 0)
(1.00177976 0.0006249541596 0)
(1.001420448 0.000500893449 0)
(1.001132679 0.0004010908032 0)
(1.000902414 0.0003208727897 0)
(1.000718333 0.0002564421163 0)
(1.000571325 0.0002047186476 0)
(1.000454065 0.0001632073667 0)
(1.000360672 0.0001298889718 0)
(1.000286436 0.000103129904 0)
(1.000227592 8.160802603e-05 0)
(1.00018114 6.425256093e-05 0)
(1.000144698 5.01937583e-05 0)
(1.000116389 3.872206259e-05 0)
(1.000094749 2.92550074e-05 0)
(1.000078654 2.130800007e-05 0)
(1.000067266 1.447129407e-05 0)
(1.000059991 8.390668218e-06 0)
(1.000056446 2.748973474e-06 0)
(1.001817066 -0.01025563989 0)
(1.005534208 -0.01070573391 0)
(1.009503665 -0.01162170632 0)
(1.013904694 -0.01303537511 0)
(1.018933444 -0.01499507937 0)
(1.024810366 -0.01756639347 0)
(1.031788277 -0.02083305873 0)
(1.040161259 -0.02489813806 0)
(1.050274562 -0.02988545376 0)
(1.062535701 -0.0359414873 0)
(1.077426966 -0.04323815516 0)
(1.095519919 -0.05197731877 0)
(1.117493188 -0.06239860512 0)
(1.144156672 -0.07479323933 0)
(1.176489249 -0.08952914502 0)
(1.215707276 -0.1071010011 0)
(1.263167386 -0.1277457148 0)
(1.32116335 -0.1518884132 0)
(1.392981096 -0.1846082447 0)
(1.47206829 -0.1852964275 0)
(1.56124722 -0.2334962994 0)
(1.651571708 -0.184734577 0)
(1.729891323 -0.1646790973 0)
(1.802848871 -0.1637089456 0)
(1.841838777 -0.009567688444 0)
(1.841841893 0.009544959939 0)
(1.802859153 0.1636818379 0)
(1.729910383 0.1646476147 0)
(1.651603597 0.1846877351 0)
(1.561297046 0.2334389144 0)
(1.472141388 0.1852212944 0)
(1.393083968 0.1845159868 0)
(1.321301891 0.1517773481 0)
(1.26334933 0.1276075149 0)
(1.215943111 0.1069296811 0)
(1.176791927 0.08931623214 0)
(1.14454245 0.07452811908 0)
(1.117982496 0.06206803626 0)
(1.096138393 0.05156482782 0)
(1.078206719 0.0427232777 0)
(1.063516899 0.03529882793 0)
(1.051507379 0.02908352878 0)
(1.041708295 0.02389795785 0)
(1.03372755 0.0195863961 0)
(1.027239009 0.0160136779 0)
(1.021972268 0.01306284607 0)
(1.017703801 0.01063318477 0)
(1.01424935 0.008638445007 0)
(1.011457419 0.007005190998 0)
(1.009203759 0.005671250163 0)
(1.007386704 0.00458427085 0)
(1.005923248 0.003700395567 0)
(1.004745763 0.002983056596 0)
(1.003799253 0.00240189669 0)
(1.003039078 0.001931814513 0)
(1.002429059 0.001552129799 0)
(1.001939922 0.001245860576 0)
(1.001548011 0.0009991036178 0)
(1.001234234 0.0008005056636 0)
(1.000983203 0.0006408172277 0)
(1.000782527 0.0005125190534 0)
(1.000622239 0.0004095088339 0)
(1.000494332 0.0003268415968 0)
(1.000392381 0.0002605153402 0)
(1.000311236 0.0002072935945 0)
(1.000246776 0.0001645595866 0)
(1.00019571 0.0001301971685 0)
(1.00015542 0.0001024928854 0)
(1.000123828 8.005570575e-05 0)
(1.000099299 6.175156783e-05 0)
(1.000080556 4.664883311e-05 0)
(1.000066621 3.397343688e-05 0)
(1.000056765 2.307126082e-05 0)
(1.000050468 1.337631545e-05 0)
(1.000047401 4.38225452e-06 0)
(1.001478751 -0.01355475255 0)
(1.004508214 -0.01415997241 0)
(1.007756902 -0.01539283114 0)
(1.011382252 -0.01729865659 0)
(1.015559164 -0.01994666515 0)
(1.020488071 -0.02343144294 0)
(1.026404215 -0.02787495813 0)
(1.033588617 -0.03342917958 0)
(1.042381454 -0.04027945889 0)
(1.053198719 -0.04864896397 0)
(1.066553144 -0.05880461487 0)
(1.083079908 -0.07106519554 0)
(1.103566421 -0.08581296909 0)
(1.128984812 -0.1035128334 0)
(1.16053099 -0.1247521842 0)
(1.199693595 -0.1503369741 0)
(1.247920692 -0.1802926358 0)
(1.30928132 -0.2188174416 0)
(1.388057824 -0.2684240608 0)
(1.47530446 -0.2679807754 0)
(1.57333844 -0.338212075 0)
(1.67548595 -0.2726832702 0)
(1.767254517 -0.2469886748 0)
(1.84915456 -0.236411816 0)
(1.893166939 -0.01995010579 0)
(1.89316797 0.01992322569 0)
(1.849158689 0.2363785851 0)
(1.767263173 0.246949999 0)
(1.675503422 0.2726219544 0)
(1.573369819 0.3381372879 0)
(1.475354674 0.2678808953 0)
(1.388132757 0.2683020025 0)
(1.309385008 0.2186716876 0)
(1.248058748 0.1801112756 0)
(1.199874299 0.1501121786 0)
(1.160764515 0.1244729644 0)
(1.129283875 0.1031652338 0)
(1.103947074 0.0853795737 0)
(1.083562367 0.07052432939 0)
(1.067162809 0.05812933884 0)
(1.053967454 0.04780582679 0)
(1.043349174 0.03922695694 0)
(1.034805268 0.03211586307 0)
(1.027932246 0.02623711199 0)
(1.022405508 0.02139025637 0)
(1.017963439 0.01740478674 0)
(1.014394971 0.01413601568 0)
(1.011529766 0.01146158926 0)
(1.009230386 0.009278449297 0)
(1.007385985 0.007500150385 0)
(1.005907226 0.006054481657 0)
(1.00472215 0.004881364986 0)
(1.003772842 0.00393100706 0)
(1.003012718 0.003162286518 0)
(1.002404331 0.002541355518 0)
(1.001917597 0.002040438222 0)
(1.001528359 0.001636805051 0)
(1.00121723 0.001311902556 0)
(1.000968656 0.001050619957 0)
(1.000770165 0.0008406749351 0)
(1.00061176 0.0006721022303 0)
(1.000485431 0.0005368285257 0)
(1.000384767 0.0004283210207 0)
(1.000304637 0.0003412994064 0)
(1.000240938 0.0002714983096 0)
(1.000190396 0.0002154719391 0)
(1.000150401 0.0001704362029 0)
(1.000118878 0.0001341385548 0)
(1.000094185 0.0001047512821 0)
(1.00007503 8.07848992e-05 0)
(1.000060405 6.101652177e-05 0)
(1.00004954 4.443043703e-05 0)
(1.000041859 3.01689909e-05 0)
(1.000036955 1.748993046e-05 0)
(1.000034567 5.729573308e-06 0)
(1.001045334 -0.01608136201 0)
(1.003192394 -0.01681506194 0)
(1.005511824 -0.01831142754 0)
(1.00812938 -0.02062920963 0)
(1.011187723 -0.02385860277 0)
(1.0148545 -0.02812378528 0)
(1.019331755 -0.03358640771 0)
(1.024867039 -0.04045013565 0)
(1.031766424 -0.04896641748 0)
(1.040409525 -0.05944183071 0)
(1.051267048 -0.072247908 0)
(1.064924054 -0.08783585662 0)
(1.082119847 -0.1067622963 0)
(1.103830585 -0.1297397646 0)
(1.13143772 -0.157737719 0)
(1.167019447 -0.1921705155 0)
(1.212893961 -0.2326548067 0)
(1.277809767 -0.2928579812 0)
(1.369277503 -0.3647980058 0)
(1.477336843 -0.3671081121 0)
(1.603265176 -0.4632710138 0)
(1.74166777 -0.3873835198 5.853694905e-21)
(1.919764441 -0.3492508341 0)
(1.967408048 -0.31386864 0)
(2.119219493 -0.03239204622 -8.611472055e-23)
(2.119216856 0.03236562065 -8.615927728e-23)
(1.967397717 0.3138320281 0)
(1.919749867 0.3492101732 0)
(1.741655083 0.3873081568 -5.853540684e-21)
(1.603266282 0.4631819278 0)
(1.477354652 0.3669869571 0)
(1.36931591 0.3646518611 0)
(1.277869574 0.2926861076 0)
(1.21297752 0.2324413882 0)
(1.167132 0.1919060648 0)
(1.131585894 0.1574096252 0)
(1.104022615 0.1293315355 0)
(1.082366309 0.1062533723 0)
(1.065238404 0.08720065531 0)
(1.051666322 0.07145462397 0)
(1.040915221 0.05845094363 0)
(1.032405622 0.0477288467 0)
(1.025673813 0.03890496451 0)
(1.020348958 0.03165808579 0)
(1.01613602 0.0257186982 0)
(1.012801336 0.02086087498 0)
(1.010160357 0.01689558341 0)
(1.008067508 0.01366503349 0)
(1.006407988 0.01103786354 0)
(1.005091261 0.008905025217 0)
(1.004045893 0.007176258881 0)
(1.003215496 0.005777075765 0)
(1.00255553 0.004646179153 0)
(1.002030788 0.003733266367 0)
(1.001613413 0.002997163052 0)
(1.00128135 0.002404246957 0)
(1.001017114 0.001927122631 0)
(1.000806838 0.00154351196 0)
(1.000639507 0.001235330663 0)
(1.000506373 0.0009879217851 0)
(1.000400476 0.0007894223984 0)
(1.00031628 0.0006302428849 0)
(1.00024938 0.0005026379298 0)
(1.000196269 0.0004003567323 0)
(1.000154158 0.0003183569292 0)
(1.000120827 0.0002525700776 0)
(1.000094514 0.0001997123117 0)
(1.000073823 0.0001571290335 0)
(1.000057649 0.0001226679189 0)
(1.000045129 9.45760776e-05 0)
(1.000035588 7.14152653e-05 0)
(1.000028511 5.199157653e-05 0)
(1.000023515 3.52971603e-05 0)
(1.000020328 2.046037314e-05 0)
(1.000018777 6.702243747e-06 0)
(1.000534459 -0.01766273491 0)
(1.001639503 -0.01848904482 0)
(1.002855706 -0.02017661322 0)
(1.004266642 -0.02279654417 0)
(1.005970826 -0.02645855881 0)
(1.008089252 -0.03131481774 0)
(1.010774763 -0.03756530338 0)
(1.014224374 -0.04546512007 0)
(1.018696546 -0.05533436164 0)
(1.024536841 -0.06757176471 0)
(1.032217292 -0.0826744861 0)
(1.042395679 -0.1012685069 0)
(1.055997252 -0.1241578104 0)
(1.0743069 -0.152404657 0)
(1.099027797 -0.1874531866 0)
(1.132217674 -0.2312954234 0)
(1.174820379 -0.2820955944 0)
(1.237628679 -0.3712690233 0)
(1.325399805 -0.4658050656 0)
(1.418072202 -0.4729239592 6.999443586e-21)
(1.52885664 -0.6003209896 0)
(1.810576187 -0.4975890498 -6.231234815e-21)
(0 0 0)
(0 0 0)
(0 0 0)
(0 0 0)
(0 0 0)
(0 0 0)
(1.810546948 0.4975219751 6.231043374e-21)
(1.528820025 0.600218968 4.747492013e-21)
(1.418058621 0.4727731458 6.731399e-21)
(1.325394057 0.4656399921 0)
(1.237637339 0.3710802336 0)
(1.174841501 0.2818628414 0)
(1.132252785 0.2310072825 0)
(1.099079424 0.1870965938 0)
(1.074378062 0.1519614726 0)
(1.056092222 0.1236055236 0)
(1.042520177 0.1005791542 0)
(1.032378786 0.08181331158 0)
(1.024744966 0.06649556168 0)
(1.018963665 0.05398941936 0)
(1.014566309 0.04378468652 0)
(1.011211755 0.0354664522 0)
(1.008647215 0.0286945871 0)
(1.006682984 0.02318919994 0)
(1.005175686 0.01871968306 0)
(1.004016627 0.01509609407 0)
(1.003123328 0.0121621737 0)
(1.002433186 0.009789592205 0)
(1.001898663 0.007873162379 0)
(1.001483637 0.006326840729 0)
(1.001160614 0.005080385474 0)
(1.000908629 0.004076564631 0)
(1.000711652 0.003268830519 0)
(1.000557393 0.002619388493 0)
(1.000436398 0.00209759674 0)
(1.000341372 0.001678646008 0)
(1.000266666 0.001342474513 0)
(1.000207894 0.001072876508 0)
(1.000161638 0.0008567731955 0)
(1.000125229 0.0006836179089 0)
(1.000096576 0.0005449109422 0)
(1.000074041 0.000433805032 0)
(1.000056336 0.0003447849972 0)
(1.000042448 0.000273407876 0)
(1.000031581 0.000216091205 0)
(1.000023111 0.0001699416995 0)
(1.000016546 0.0001326159764 0)
(1.000011505 0.000102206979 0)
(1.000007693 7.715097281e-05 0)
(1.000004884 5.615092209e-05 0)
(1.000002913 3.811227024e-05 0)
(1.000001661 2.20886176e-05 0)
(1.000001053 7.234991898e-06 0)
(0.9999701572 -0.01816785548 0)
(0.9999218151 -0.01904168294 0)
(0.9999095663 -0.02082913305 0)
(0.9999645986 -0.02361145877 0)
(1.000129694 -0.02751479323 0)
(1.000465778 -0.03271554798 0)
(1.001060589 -0.03944817526 0)
(1.00204025 -0.04801594983 0)
(1.003584402 -0.05880587185 0)
(1.005945186 -0.07230953382 0)
(1.009469639 -0.08915282585 0)
(1.01462386 -0.1101381082 0)
(1.022014105 -0.1363010194 0)
(1.032391449 -0.1689771271 0)
(1.046610962 -0.2098600674 0)
(1.065502648 -0.2610221867 0)
(1.088367428 -0.317901783 0)
(1.131366967 -0.4413764818 0)
(1.195066624 -0.5588939955 0)
(1.269899236 -0.6640302923 -4.732854644e-21)
(1.461130088 -0.7521587939 -4.254053744e-21)
(0 0 0)
(0 0 0)
(0 0 0)
(0 0 0)
(0 0 0)
(0 0 0)
(0 0 0)
(0 0 0)
(1.46106889 0.7520404742 -4.254799616e-21)
(1.269841397 0.6638884551 4.73239353e-21)
(1.195022747 0.5587074131 0)
(1.131322665 0.4411803533 0)
(1.088323559 0.3176634604 0)
(1.065456925 0.26072747 0)
(1.046561734 0.2094970258 0)
(1.032336142 0.1685269219 0)
(1.021950259 0.1357404688 0)
(1.014548959 0.1094385284 0)
(1.009380976 0.08827862028 0)
(1.005839767 0.07121645722 0)
(1.003458871 0.0574388833 0)
(1.001890859 0.04630655558 0)
(1.000883222 0.03731113679 0)
(1.000256053 0.03004480297 0)
(0.9998831993 0.02417840531 0)
(0.9996773208 0.01944536722 0)
(0.9995786222 0.01562942495 0)
(0.9995466413 0.01255504784 0)
(0.9995543762 0.01007980851 0)
(0.9995841227 0.008088226664 0)
(0.9996245375 0.006486762449 0)
(0.9996685755 0.005199727417 0)
(0.999712052 0.004165939775 0)
(0.9997526503 0.003335990366 0)
(0.9997892443 0.002670011422 0)
(0.9998214442 0.002135857738 0)
(0.9998492949 0.001707627739 0)
(0.999873081 0.001364463365 0)
(0.9998932028 0.001089576552 0)
(0.9999101005 0.0008694608136 0)
(0.9999242093 0.0006932532811 0)
(0.9999359346 0.0005522198428 0)
(0.9999456403 0.0004393383672 0)
(0.9999536447 0.0003489622357 0)
(0.9999602209 0.0002765495115 0)
(0.9999656 0.00021844251 0)
(0.9999699749 0.0001716903785 0)
(0.9999735044 0.0001339056003 0)
(0.9999763179 0.0001031468518 0)
(0.9999785192 7.78235809e-05 0)
(0.9999801898 5.66173945e-05 0)
(0.9999813914 3.841647923e-05 0)
(0.9999821686 2.225991585e-05 0)
(0.9999825501 7.290227353e-06 0)
(0.9993830246 -0.01752039047 0)
(0.9981314681 -0.01838794939 0)
(0.9968278179 -0.02016565165 0)
(0.9954398819 -0.02294070369 0)
(0.9939396908 -0.02684911734 0)
(0.9923059739 -0.03208229328 0)
(0.9905273964 -0.03889648014 0)
(0.9886069484 -0.04762591696 0)
(0.9865682433 -0.0587008569 0)
(0.9844645069 -0.07267185324 0)
(0.9823891068 -0.09024100822 0)
(0.9804800965 -0.1122983822 0)
(0.9789003004 -0.1399570046 0)
(0.9777675585 -0.1745749884 0)
(0.9770266238 -0.2177542635 0)
(0.9763072358 -0.2713184605 0)
(0.9741116105 -0.328295333 0)
(0.9938080897 -0.4937416462 0)
(1.027940069 -0.6387137246 9.488853121e-21)
(0 0 0)
(0 0 0)
(0 0 0)
(0 0 0)
(0 0 0)
(0 0 0)
(0 0 0)
(0 0 0)
(0 0 0)
(0 0 0)
(0 0 0)
(0 0 0)
(1.027859557 0.6385321914 1.67526613e-21)
(0.9937140195 0.4935484497 0)
(0.9740050961 0.3280661019 0)
(0.9761825434 0.2710347048 0)
(0.976878433 0.2174072913 0)
(0.9775879071 0.1741462902 0)
(0.9786801143 0.1394240697 0)
(0.9802086835 0.1116335316 0)
(0.9820536096 0.0894099965 0)
(0.9840492856 0.07163215978 0)
(0.9860541627 0.0573995757 0)
(0.987970547 0.04599714231 0)
(0.9897399143 0.03685805838 0)
(0.9913322193 0.02953177999 0)
(0.9927367282 0.02365874112 0)
(0.9939555376 0.0189510876 0)
(0.9949990139 0.01517798215 0)
(0.9958824281 0.01215420595 0)
(0.9966234394 0.009731155446 0)
(0.997240284 0.007789642034 0)
(0.9977505655 0.006234100091 0)
(0.9981705316 0.004987921597 0)
(0.9985147121 0.003989700969 0)
(0.9987958032 0.003190218143 0)
(0.9990247094 0.002550017882 0)
(0.9992106734 0.002037469265 0)
(0.9993614488 0.00162721141 0)
(0.9994834879 0.001298908773 0)
(0.9995821246 0.001036253903 0)
(0.9996617453 0.0008261684932 0)
(0.999725941 0.0006581627764 0)
(0.9997776405 0.0005238221758 0)
(0.9998192244 0.0004163951138 0)
(0.999852622 0.0003304620585 0)
(0.9998793921 0.0002616700755 0)
(0.9999007897 0.0002065184017 0)
(0.9999178218 0.0001621861597 0)
(0.9999312918 0.0001263933228 0)
(0.9999418363 9.728770267e-05 0)
(0.9999499543 7.335308235e-05 0)
(0.9999560303 5.333369905e-05 0)
(0.9999603519 3.61713208e-05 0)
(0.9999631241 2.095211158e-05 0)
(0.9999644782 6.860790631e-06 0)
(0.9988109219 -0.01571253094 0)
(0.996383657 -0.01651330859 0)
(0.9938081947 -0.01815730089 0)
(0.9909830685 -0.02073177919 0)
(0.9878036241 -0.02437372675 0)
(0.9841622673 -0.02927733514 0)
(0.9799496451 -0.03570424733 0)
(0.9750553096 -0.04399655143 0)
(0.9693637423 -0.05459221976 0)
(0.9627378692 -0.06804215134 0)
(0.9549796749 -0.08502728216 0)
(0.9457615853 -0.1063738814 0)
(0.934539062 -0.1330663837 0)
(0.9204826327 -0.1662612489 0)
(0.9024843851 -0.2073100816 0)
(0.8792574397 -0.2577923627 0)
(0.8501186796 -0.310455711 0)
(0.8251490623 -0.5471590229 -3.212663185e-21)
(0.9161021925 -0.7057948654 0)
(0 0 0)
(0 0 0)
(0 0 0)
(0 0 0)
(0 0 0)
(0 0 0)
(0 0 0)
(0 0 0)
(0 0 0)
(0 0 0)
(0 0 0)
(0 0 0)
(0.9159958426 0.7056280252 0)
(0.8250541303 0.5469692383 -2.920298178e-21)
(0.8499739121 0.3102543847 0)
(0.8790723712 0.2575392397 0)
(0.9022527743 0.2070025873 0)
(0.9201931261 0.1658825185 0)
(0.9341775631 0.1325961207 0)
(0.9453105452 0.1057872678 0)
(0.9544172422 0.08429368554 0)
(0.9620368612 0.06712356043 0)
(0.9684903795 0.05344132125 0)
(0.9739676534 0.04255434492 0)
(0.9785956735 0.03389707108 0)
(0.9824775152 0.02701314638 0)
(0.9857083054 0.02153744031 0)
(0.9883785809 0.01717941446 0)
(0.9905729016 0.01370862056 0)
(0.9923678325 0.01094254406 0)
(0.9938307566 0.00873667799 0)
(0.9950196701 0.006976555716 0)
(0.9959836767 0.005571423972 0)
(0.9967638592 0.004449248954 0)
(0.9973942917 0.00355278601 0)
(0.9979030543 0.002836489569 0)
(0.9983131733 0.002264082139 0)
(0.9986434586 0.001806639484 0)
(0.9989092279 0.001441079898 0)
(0.9991229234 0.001148970081 0)
(0.9992946296 0.0009155793603 0)
(0.9994325051 0.0007291292678 0)
(0.9995431396 0.0005801970332 0)
(0.9996318468 0.0004612407891 0)
(0.9997029059 0.0003662208953 0)
(0.9997597567 0.0002902975604 0)
(0.9998051599 0.0002295891618 0)
(0.9998413258 0.0001809781635 0)
(0.9998700189 0.0001419555318 0)
(0.9998926413 0.0001104954756 0)
(0.9999103001 8.495403942e-05 0)
(0.9999238603 6.398680768e-05 0)
(0.9999339868 4.648130718e-05 0)
(0.9999411765 3.150088411e-05 0)
(0.9999457821 1.823739147e-05 0)
(0.9999480297 5.970264981e-06 0)
(0.9982972535 -0.01281781456 0)
(0.9948100217 -0.01348761368 0)
(0.9910735529 -0.01486475285 0)
(0.9869080097 -0.01702666714 0)
(0.9821120478 -0.02009545714 0)
(0.9764522413 -0.02424514032 0)
(0.9696507154 -0.02971127988 0)
(0.9613711649 -0.0368024589 0)
(0.9512045836 -0.04591230556 0)
(0.9386574341 -0.05752986994 0)
(0.9231451331 -0.0722457977 0)
(0.903989371 -0.09075314033 0)
(0.8804048743 -0.1138452977 0)
(0.8514385209 -0.1424165294 0)
(0.8157995023 -0.1774638977 0)
(0.7715184878 -0.2200630787 0)
(0.7186715137 -0.2661172751 0)
(0.6561152106 -0.4440426908 3.12975861e-21)
(0 0 0)
(0 0 0)
(0 0 0)
(0 0 0)
(0 0 0)
(0 0 0)
(0 0 0)
(0 0 0)
(0 0 0)
(0 0 0)
(0 0 0)
(0 0 0)
(0 0 0)
(0 0 0)
(0.6559680369 0.4439013906 3.129154366e-21)
(0.7184832466 0.265961653 0)
(0.771276377 0.2198584903 0)
(0.815494817 0.1772170948 0)
(0.8510554593 0.1421135159 0)
(0.8799239341 0.1134693586 0)
(0.9033864334 0.09028395307 0)
(0.9223902623 0.07165836383 0)
(0.9377133667 0.05679321596 0)
(0.9500248645 0.04498788454 0)
(0.959897855 0.03564216699 0)
(0.9678115636 0.02825497866 0)
(0.9741571845 0.02241754864 0)
(0.9792488703 0.01780223963 0)
(0.9833369546 0.01414949696 0)
(0.9866206305 0.01125506342 0)
(0.9892586983 0.0089586695 0)
(0.9913781218 0.007134622638 0)
(0.9930806741 0.005684253798 0)
(0.9944480861 0.004529975867 0)
(0.9955460658 0.003610656772 0)
(0.996427469 0.002878030572 0)
(0.9971348204 0.002293914924 0)
(0.9977023306 0.001828049881 0)
(0.9981575162 0.001456415342 0)
(0.998522503 0.001159917211 0)
(0.9988150758 0.0009233582803 0)
(0.9990495247 0.0007346299427 0)
(0.9992373266 0.0005840754682 0)
(0.9993876949 0.0004639871082 0)
(0.9995080213 0.000368208081 0)
(0.9996042318 0.0002918167947 0)
(0.9996810732 0.0002308757379 0)
(0.9997423428 0.0001822314824 0)
(0.999791073 0.0001433547787 0)
(0.9998296789 0.0001122126809 0)
(0.999860076 8.716577868e-05 0)
(0.9998837744 6.688527883e-05 0)
(0.9999019521 5.02858254e-05 0)
(0.9999155138 3.647035957e-05 0)
(0.9999251347 2.468448336e-05 0)
(0.9999312941 1.427805828e-05 0)
(0.9999342989 4.671926719e-06 0)
(0.9978922181 -0.009003475636 0)
(0.9935684667 -0.009483158434 0)
(0.988913881 -0.0104697625 0)
(0.9836865313 -0.01201937177 0)
(0.9776107751 -0.01422016265 0)
(0.9703603966 -0.01719733963 0)
(0.9615382623 -0.02111979669 0)
(0.9506515555 -0.02620851855 0)
(0.9370823454 -0.03274671875 0)
(0.9200552414 -0.04109162895 0)
(0.8986077068 -0.05168724319 0)
(0.8715729303 -0.06507496578 0)
(0.8375847396 -0.0818932122 0)
(0.7951009648 -0.1028470365 0)
(0.742414328 -0.1286194095 0)
(0.6775964319 -0.1596995573 0)
(0.5942780707 -0.2117481694 3.669679772e-21)
(0.5518588542 -0.3585085506 -2.939717384e-21)
(0 0 0)
(0 0 0)
(0 0 0)
(0 0 0)
(0 0 0)
(0 0 0)
(0 0 0)
(0 0 0)
(0 0 0)
(0 0 0)
(0 0 0)
(0 0 0)
(0 0 0)
(0 0 0)
(0.5517286092 0.3583902245 -2.93908559e-21)
(0.5940888334 0.2116597092 3.668539032e-21)
(0.6773326455 0.1595609409 0)
(0.7420673139 0.1284525828 0)
(0.7946544837 0.102642068 0)
(0.8370173186 0.08163826549 0)
(0.8708568632 0.06475570017 0)
(0.8977077299 0.05128606641 0)
(0.9189268242 0.0405867725 0)
(0.9356695081 0.0321110921 0)
(0.9488841044 0.02540828501 0)
(0.9593283049 0.02011259371 0)
(0.967597958 0.01593004431 0)
(0.97415829 0.0126260742 0)
(0.9793719198 0.01001464656 0)
(0.9835218337 0.007948890331 0)
(0.986829455 0.006313207856 0)
(0.989468598 0.00501675928 0)
(0.9915761656 0.003988187089 0)
(0.9932603343 0.003171410349 0)
(0.9946068252 0.002522307203 0)
(0.9956837281 0.002006115707 0)
(0.9965452326 0.001595404974 0)
(0.9972345318 0.001268493637 0)
(0.9977860936 0.001008217371 0)
(0.9982274483 0.0008009673878 0)
(0.998580599 0.0006359389266 0)
(0.9988631396 0.0005045428716 0)
(0.9990891424 0.0003999438892 0)
(0.9992698648 0.0003166969455 0)
(0.9994143113 0.0002504606351 0)
(0.9995296829 0.0001977705101 0)
(0.9996217352 0.0001558594145 0)
(0.9996950641 0.0001225147574 0)
(0.9997533336 9.596472403e-05 0)
(0.9997994583 7.4787491e-05 0)
(0.999835747 5.783838582e-05 0)
(0.9998640181 4.419125391e-05 0)
(0.9998856894 3.309100562e-05 0)
(0.9999018483 2.391478804e-05 0)
(0.9999133065 1.613988346e-05 0)
(0.9999206396 9.316678866e-06 0)
(0.9999242163 3.045299659e-06 0)
(0.9976360742 -0.0045272962 0)
(0.9927841616 -0.004774498237 0)
(0.9875528787 -0.005282668144 0)
(0.9816649269 -0.006080049431 0)
(0.9748049969 -0.007210863115 0)
(0.9666019881 -0.008737798378 0)
(0.9566095079 -0.01074590888 0)
(0.9442856238 -0.0133486049 0)
(0.9289736543 -0.01669657159 0)
(0.9098850369 -0.02098993901 0)
(0.8860809015 -0.02649201146 0)
(0.8564406267 -0.03353847115 0)
(0.8195993198 -0.04252937965 0)
(0.7738457054 -0.05388524255 0)
(0.7170096189 -0.06794895747 0)
(0.6464229375 -0.08483002723 0)
(0.5568678302 -0.1279105952 0)
(0.3799038153 -0.1750640772 1.208526007e-21)
(0 0 0)
(0 0 0)
(0 0 0)
(0 0 0)
(0 0 0)
(0 0 0)
(0 0 0)
(0 0 0)
(0 0 0)
(0 0 0)
(0 0 0)
(0 0 0)
(0 0 0)
(0 0 0)
(0.3797802195 0.1750244512 1.208125931e-21)
(0.556664067 0.1278670427 1.822057172e-21)
(0.6461352231 0.08477170844 0)
(0.716630098 0.06787704244 0)
(0.773356385 0.05379483804 0)
(0.8189764588 0.04241460378 0)
(0.8556535933 0.03339216612 0)
(0.8850906733 0.02630536581 0)
(0.9086422706 0.02075201076 0)
(0.9274162292 0.01639369475 0)
(0.9423355297 0.0129636516 0)
(0.954168912 0.01025736679 0)
(0.9635482701 0.008118611117 0)
(0.9709844827 0.006426966197 0)
(0.9768849771 0.005088516263 0)
(0.9815718893 0.004029357614 0)
(0.9852989069 0.003191066997 0)
(0.9882656535 0.002527404803 0)
(0.9906293586 0.002001797503 0)
(0.992514071 0.001585349939 0)
(0.9940178442 0.001255253315 0)
(0.9952183245 0.0009935090195 0)
(0.9961771005 0.0007859107845 0)
(0.996943096 0.0006212378636 0)
(0.9975552247 0.0004906189519 0)
(0.9980444728 0.000387032428 0)
(0.9984355374 0.0003049143414 0)
(0.9987481182 0.0002398510093 0)
(0.9989979375 0.0001883376872 0)
(0.9991975491 0.0001475889402 0)
(0.9993569781 0.0001153892789 0)
(0.9994842304 8.997522429e-05 0)
(0.9995856972 6.994207205e-05 0)
(0.9996664764 5.416994165e-05 0)
(0.9997306291 4.176493905e-05 0)
(0.9997813825 3.201231426e-05 0)
(0.9998212922 2.433896461e-05 0)
(0.9998523691 1.828325316e-05 0)
(0.9998761807 1.347069424e-05 0)
(0.9998939288 9.594140356e-06 0)
(0.9999065098 6.397302196e-06 0)
(0.9999145596 3.660983798e-06 0)
(0.9999184852 1.191243213e-06 0)
(0.9975511462 0.0002902961769 0)
(0.9925251972 0.0002956488711 0)
(0.9871076887 0.0003066249331 0)
(0.9810144861 0.0003237930157 0)
(0.9739255864 0.0003480729048 0)
(0.9654677119 0.0003808098653 0)
(0.9551920821 0.0004238609536 0)
(0.9425428899 0.0004796746489 0)
(0.9268097285 0.0005513249284 0)
(0.9070569303 0.0006424214627 0)
(0.8820287702 0.0007567558376 0)
(0.8500459056 0.0008975241668 0)
(0.8089335028 0.001066288423 0)
(0.7560415678 0.001263284373 0)
(0.6884103353 0.001494301802 0)
(0.6030850682 0.001794573973 0)
(0.4882046897 0.05071053489 -4.867862084e-22)
(0.3590010916 0.06192096089 -3.017921703e-22)
(0 0 0)
(0 0 0)
(0 0 0)
(0 0 0)
(0 0 0)
(0 0 0)
(0 0 0)
(0 0 0)
(0 0 0)
(0 0 0)
(0 0 0)
(0 0 0)
(0 0 0)
(0 0 0)
(0.3588752361 -0.06186871082 -3.016873863e-22)
(0.488021353 -0.05065909135 -3.36156545e-22)
(0.602797054 -0.001765575361 0)
(0.6880248409 -0.001464058237 0)
(0.755541324 -0.001231074132 0)
(0.8082948324 -0.001031439878 0)
(0.8492376649 -0.0008593771533 0)
(0.8810109183 -0.0007146346119 0)
(0.9057786265 -0.0005956136684 0)
(0.9252068476 -0.0004990627383 0)
(0.940534825 -0.0004211160621 0)
(0.9526776719 -0.0003580710452 0)
(0.9623200819 -0.0003067408354 0)
(0.9699856276 -0.0002645419083 0)
(0.976082616 -0.0002294558813 0)
(0.980933439 -0.0001999431986 0)
(0.9847940479 -0.0001748464269 0)
(0.9878678796 -0.0001533005131 0)
(0.9903165222 -0.0001346572882 0)
(0.992268204 -0.0001184259048 0)
(0.993824628 -0.000104228117 0)
(0.9950664619 -9.176614602e-05 0)
(0.9960577219 -8.080011735e-05 0)
(0.9968492502 -7.113251999e-05 0)
(0.9974814641 -6.259759229e-05 0)
(0.9979865247 -5.505401622e-05 0)
(0.9983900461 -4.837984247e-05 0)
(0.9987124444 -4.246879227e-05 0)
(0.9989700028 -3.722767307e-05 0)
(0.9991757145 -3.257427641e-05 0)
(0.9993399501 -2.843575968e-05 0)
(0.9994709871 -2.474738503e-05 0)
(0.9995754304 -2.145138459e-05 0)
(0.9996585467 -1.849599992e-05 0)
(0.9997245296 -1.583474429e-05 0)
(0.9997767109 -1.342566731e-05 0)
(0.9998177279 -1.123065653e-05 0)
(0.9998496558 -9.214922413e-06 0)
(0.9998741112 -7.346437045e-06 0)
(0.9998923338 -5.59541388e-06 0)
(0.9999052481 -3.933926728e-06 0)
(0.9999135096 -2.335436538e-06 0)
(0.9999175381 -7.743442521e-07 0)
(0.9976406533 0.005103304897 0)
(0.9927982347 0.005360876095 0)
(0.9875775086 0.005890270509 0)
(0.9817020646 0.006720762715 0)
(0.9748577352 0.007898265531 0)
(0.9666748827 0.009487984924 0)
(0.9567089334 0.01157850662 0)
(0.9444201351 0.01428795744 0)
(0.9291543481 0.01777298945 0)
(0.9101258859 0.02224079865 0)
(0.8863987736 0.02796240631 0)
(0.8568537008 0.03528133911 0)
(0.8201201954 0.04460622747 0)
(0.7744621411 0.05637188467 0)
(0.7176465076 0.07095701433 0)