/*--------------------------------*- C++ -*----------------------------------*\
| =========                 |                                                 |
| \\      /  F ield         | OpenFOAM Extend Project: Open source CFD        |
|  \\    /   O peration     | Version:  1.6-ext                               |
|   \\  /    A nd           | Web:      www.extend-project.de                 |
|    \\/     M anipulation  |                                                 |
\*---------------------------------------------------------------------------*/
FoamFile
{
    version     2.0;
    format      ascii;
    class       volVectorField;
    location    "0";
    object      U;
}
// * * * * * * * * * * * * * * * * * * * * * * * * * * * * * * * * * * * * * //

dimensions      [0 1 -1 0 0 0 0];

internalField   nonuniform List<vector> 
2675
(
(1.002045629 -0.002047675018 0)
(1.006230208 -0.002141088485 0)
(1.010698131 -0.00233130215 0)
(1.015649614 -0.002625132009 0)
(1.021301996 -0.003032902257 0)
(1.027896853 -0.003568550462 0)
(1.03570734 -0.004249746432 0)
(1.045045756 -0.005098008467 0)
(1.056271344 -0.00613880431 0)
(1.069798254 -0.007401633187 0)
(1.086103679 -0.008920096849 0)
(1.105736108 -0.01073196471 0)
(1.12932367 -0.01287918511 0)
(1.157582155 -0.01540755852 0)
(1.191320986 -0.01836501112 0)
(1.231440978 -0.02179510126 0)
(1.278902573 -0.02571395491 0)
(1.334166875 -0.02960561091 0)
(1.398593173 -0.03488511404 0)
(1.469435684 -0.03602823973 0)
(1.549789948 -0.04440637816 0)
(1.629460928 -0.03534427299 0)
(1.693470031 -0.02872883922 0)
(1.753179728 -0.03104056679 0)
(1.784379394 -0.0001902991064 0)
(1.784383905 0.000185783441 0)
(1.753193977 0.03103533415 0)
(1.693495614 0.02872272781 0)
(1.629501201 0.03533567988 0)
(1.549849473 0.04439569916 0)
(1.469519537 0.03601456689 0)
(1.398707661 0.03486812156 0)
(1.334319056 0.02958487168 0)
(1.279101328 0.02568807435 0)
(1.231697763 0.02176289426 0)
(1.191650094 0.01832482233 0)
(1.1580016 0.01535731955 0)
(1.12985612 0.01281630643 0)
(1.106410048 0.01065321119 0)
(1.08695486 0.00882143183 0)
(1.070871487 0.007278024578 0)
(1.057622725 0.005983986012 0)
(1.046745431 0.004904185673 0)
(1.037842914 0.004007233909 0)
(1.030577614 0.00326533107 0)
(1.024664108 0.002654088904 0)
(1.019862506 0.002152314919 0)
(1.015972319 0.001741761618 0)
(1.012826853 0.001406850493 0)
(1.010288156 0.001134384879 0)
(1.008242553 0.0009132635251 0)
(1.006596729 0.0007342062585 0)
(1.005274347 0.0005894988223 0)
(1.004213149 0.0004727597717 0)
(1.003362506 0.0003787338296 0)
(1.002681343 0.000303110475 0)
(1.002136412 0.0002423656622 0)
(1.001700854 0.0001936277742 0)
(1.001353011 0.0001545632574 0)
(1.001075445 0.0001232797162 0)
(1.000854141 9.824631972e-05 0)
(1.000677844 7.822644064e-05 0)
(1.000537535 6.222267712e-05 0)
(1.000425992 4.943199047e-05 0)
(1.000337441 3.920763651e-05 0)
(1.000267275 3.10291278e-05 0)
(1.000211823 2.447776263e-05 0)
(1.000168173 1.921598123e-05 0)
(1.00013402 1.497082114e-05 0)
(1.000107555 1.152092625e-05 0)
(1.000087369 8.685472574e-06 0)
(1.000072384 6.314684812e-06 0)
(1.000061797 4.282565702e-06 0)
(1.000055041 2.480692148e-06 0)
(1.000051751 8.123390411e-07 0)
(1.001931957 -0.006029239321 0)
(1.005885476 -0.006305760353 0)
(1.010111241 -0.00686901148 0)
(1.014802254 -0.007739560832 0)
(1.020169001 -0.008948621294 0)
(1.026446882 -0.01053844244 0)
(1.033904044 -0.0125627711 0)
(1.04284969 -0.0150873307 0)
(1.053642879 -0.01819027654 0)
(1.066701824 -0.02196260204 0)
(1.082513664 -0.02650851004 0)
(1.101644714 -0.03194579406 0)
(1.124751312 -0.03840621077 0)
(1.152591567 -0.04603537179 0)
(1.186038393 -0.05499003956 0)
(1.226094301 -0.06542614914 0)
(1.273885299 -0.07743075277 0)
(1.330164262 -0.08954362065 0)
(1.396918634 -0.1062589552 0)
(1.470330851 -0.1090533823 0)
(1.553672781 -0.1352411253 0)
(1.636212959 -0.1068828951 0)
(1.704436626 -0.08955521973 0)
(1.769306339 -0.09491817509 0)
(1.803527186 -0.001798624278 -1.736733506e-34)
(1.803531074 0.001785701022 -1.73673725e-34)
(1.769318752 0.09490306798 0)
(1.704459088 0.08953757996 0)
(1.636248864 0.1068576698 0)
(1.553726652 0.1352098226 0)
(1.470407617 0.1090130635 0)
(1.397024391 0.1062089222 0)
(1.330305476 0.0894826981 0)
(1.274070207 0.07735469871 0)
(1.226333653 0.06533152877 0)
(1.18634556 0.05487198524 0)
(1.152983416 0.04588780495 0)
(1.125249078 0.03822151903 0)
(1.102275103 0.03171446514 0)
(1.083310216 0.02621867346 0)
(1.067706601 0.02159945795 0)
(1.054908571 0.01773539043 0)
(1.044442227 0.01451776394 0)
(1.035905826 0.01185001235 0)
(1.028960789 0.00964710013 0)
(1.023323336 0.0078348294 0)
(1.018756838 0.006349042713 0)
(1.015064902 0.005134738735 0)
(1.012085228 0.00414513882 0)
(1.009684217 0.003340744468 0)
(1.00775228 0.002688420608 0)
(1.006199819 0.002160532481 0)
(1.004953789 0.001734153891 0)
(1.003954799 0.001390352846 0)
(1.003154672 0.001113561068 0)
(1.002514415 0.0008910244364 0)
(1.002002527 0.0007123280002 0)
(1.001593602 0.0005689928979 0)
(1.001267184 0.0004541337138 0)
(1.001006825 0.0003621715477 0)
(1.000799317 0.0002885957762 0)
(1.000634068 0.0002297644964 0)
(1.000502591 0.0001827418844 0)
(1.000398099 0.0001451642775 0)
(1.000315167 0.0001151295534 0)
(1.000249469 9.110739322e-05 0)
(1.000197561 7.186630403e-05 0)
(1.000156709 5.641397424e-05 0)
(1.000124753 4.394843558e-05 0)
(1.000099993 3.381908851e-05 0)
(1.000081111 2.549443136e-05 0)
(1.000067097 1.853455596e-05 0)
(1.000057197 1.256950864e-05 0)
(1.00005088 7.280710484e-06 0)
(1.000047804 2.38408356e-06 0)
(1.001708456 -0.009673293446 0)
(1.005207358 -0.01012157986 0)
(1.008955709 -0.01103528111 0)
(1.013131516 -0.01244897879 0)
(1.01793074 -0.01441533976 0)
(1.023575235 -0.01700602187 0)
(1.03032148 -0.02031280246 0)
(1.038470302 -0.02444886254 0)
(1.048377822 -0.02955015335 0)
(1.06046778 -0.03577677648 0)
(1.075245364 -0.04331434963 0)
(1.093312613 -0.05237545216 0)
(1.11538576 -0.06320147728 0)
(1.142316007 -0.07606537853 0)
(1.175118137 -0.09127523692 0)
(1.215019407 -0.1091780868 0)
(1.263456027 -0.1300026609 0)
(1.321924031 -0.151833427 0)
(1.393468626 -0.1824064141 0)
(1.472122181 -0.1851237621 0)
(1.561160028 -0.2317229016 0)
(1.650125164 -0.1820779386 0)
(1.727373821 -0.1599779724 0)
(1.801973285 -0.1641040687 0)
(1.842124173 -0.007058836426 0)
(1.842126832 0.00703935921 0)
(1.801982076 0.164080844 0)
(1.727390139 0.1599508577 0)
(1.650152504 0.1820376986 0)
(1.561202855 0.231673127 0)
(1.472185152 0.1850588331 0)
(1.393557449 0.1823260931 0)
(1.322044005 0.1517361178 0)
(1.263614118 0.129881101 0)
(1.215224994 0.1090269295 0)
(1.175382802 0.09108669926 0)
(1.142654385 0.07582974362 0)
(1.115816306 0.06290656941 0)
(1.093858575 0.05200605213 0)
(1.075935977 0.04285145948 0)
(1.061339762 0.03519670236 0)
(1.049477229 0.02882336875 0)
(1.039854843 0.02353860486 0)
(1.032063396 0.01917334637 0)
(1.025764883 0.01558056087 0)
(1.020681028 0.01263339661 0)
(1.016583415 0.01022325113 0)
(1.013285057 0.008257814665 0)
(1.010633276 0.006659148464 0)
(1.008503704 0.005361849295 0)
(1.006795258 0.004311338955 0)
(1.005425952 0.003462302542 0)
(1.004329419 0.00277728917 0)
(1.003452029 0.002225474876 0)
(1.002750512 0.001781584061 0)
(1.002190011 0.001424960137 0)
(1.00174248 0.001138771251 0)
(1.001385382 0.0009093389816 0)
(1.001100625 0.0007255732066 0)
(1.000873703 0.0005785006449 0)
(1.000692991 0.0004608740766 0)
(1.000549188 0.0003668486856 0)
(1.000434851 0.0002917168048 0)
(1.000344037 0.0002316905055 0)
(1.000272004 0.00018372379 0)
(1.00021497 0.0001453672322 0)
(1.000169931 0.0001146504263 0)
(1.000134503 8.998647752e-05 0)
(1.000106801 7.009371279e-05 0)
(1.000085348 5.393218313e-05 0)
(1.000068994 4.065226623e-05 0)
(1.00005686 2.955159305e-05 0)
(1.000048292 2.003948135e-05 0)
(1.000042824 1.160696466e-05 0)
(1.000040163 3.800577978e-06 0)
(1.001383186 -0.01276802731 0)
(1.004219745 -0.01336864246 0)
(1.007270304 -0.01459392724 0)
(1.010689153 -0.01649258424 0)
(1.014648582 -0.01913914477 0)
(1.019347253 -0.02263572653 0)
(1.025019846 -0.02711435448 0)
(1.031948477 -0.03273984093 0)
(1.040476598 -0.03971325165 0)
(1.051026385 -0.0482760626 0)
(1.064121087 -0.05871522223 0)
(1.080414275 -0.071369377 0)
(1.100727414 -0.08663622373 0)
(1.126094681 -0.1049804443 0)
(1.157812015 -0.1269441552 0)
(1.197501145 -0.1531791581 0)
(1.246931326 -0.1839662571 0)
(1.308992601 -0.2185196401 0)
(1.387807904 -0.2662304587 0)
(1.474476891 -0.2667875819 0)
(1.571968636 -0.3367752032 0)
(1.67253752 -0.266749191 0)
(1.764668195 -0.2448554316 0)
(1.852034745 -0.2413545894 0)
(1.900092556 -0.01810522283 0)
(1.900093412 0.01808222691 0)
(1.852038221 0.2413261228 0)
(1.764675519 0.2448221727 0)
(1.672552413 0.2666964852 0)
(1.571995535 0.3367103737 0)
(1.474520088 0.2667012295 0)
(1.387872588 0.2661241758 0)
(1.309082393 0.2183919768 0)
(1.247051323 0.1838066607 0)
(1.197658757 0.152980841 0)
(1.15801629 0.1266969311 0)
(1.126357058 0.1046715497 0)
(1.101062378 0.08624965509 0)
(1.080840131 0.07088512405 0)
(1.064660921 0.0581082973 0)
(1.051709262 0.04751528686 0)
(1.041339066 0.03875974605 0)
(1.033036446 0.03154515856 0)
(1.026390945 0.02561817635 0)
(1.021073779 0.02076302669 0)
(1.016821189 0.01679671158 0)
(1.013421472 0.01356476429 0)
(1.010704708 0.01093743787 0)
(1.008534564 0.008806271901 0)
(1.006801708 0.007081016761 0)
(1.005418516 0.005686901693 0)
(1.004314804 0.004562230225 0)
(1.003434391 0.003656284309 0)
(1.002732327 0.002927513687 0)
(1.002172666 0.002341984035 0)
(1.001726675 0.001872059191 0)
(1.001371392 0.00149528863 0)
(1.001088477 0.001193475131 0)
(1.000863281 0.0009518987641 0)
(1.000684112 0.0007586725724 0)
(1.000541637 0.0006042117496 0)
(1.000428411 0.0004807980586 0)
(1.000338497 0.0003822224053 0)
(1.000267164 0.0003034939304 0)
(1.000210644 0.0002406028555 0)
(1.00016594 0.0001903271572 0)
(1.000130673 0.0001500768171 0)
(1.000102958 0.0001177669921 0)
(1.000081307 9.171473453e-05 0)
(1.000064554 7.055526268e-05 0)
(1.000051792 5.317352861e-05 0)
(1.00004233 3.864823743e-05 0)
(1.000035652 2.620511301e-05 0)
(1.000031393 1.517689907e-05 0)
(1.000029321 4.969317079e-06 0)
(1.00096904 -0.01512260545 0)
(1.002961086 -0.0158474973 0)
(1.005118227 -0.01732798097 0)
(1.00756139 -0.01962640499 0)
(1.010428494 -0.02283868225 0)
(1.013882688 -0.02709720797 0)
(1.018122152 -0.03257484177 0)
(1.023392005 -0.0394900358 0)
(1.029998892 -0.04811319994 0)
(1.038328506 -0.05877439531 0)
(1.048865794 -0.07187251133 0)
(1.062217489 -0.08788661509 0)
(1.079140547 -0.1073924188 0)
(1.100596109 -0.1310939006 0)
(1.127886482 -0.159897415 0)
(1.162981544 -0.1950848737 0)
(1.208407708 -0.2370117426 0)
(1.271513667 -0.2907665561 0)
(1.360617401 -0.3620704994 0)
(1.467065391 -0.364257634 0)
(1.594122052 -0.4640781063 0)
(1.742531057 -0.3757516354 5.838409111e-21)
(1.917253496 -0.3509801678 0)
(1.958383395 -0.3277976414 0)
(2.117759664 -0.03146460152 -8.758757022e-23)
(2.117757432 0.03144197556 -8.762572209e-23)
(1.95837473 0.3277661753 0)
(1.917241265 0.3509452498 0)
(1.742520858 0.3756867339 -5.838278492e-21)
(1.594123627 0.4640010062 0)
(1.467081247 0.3641529421 0)
(1.360650989 0.3619432987 0)
(1.271565769 0.290616144 0)
(1.208480599 0.2368238508 0)
(1.163079971 0.1948516375 0)
(1.128016301 0.1596069777 0)
(1.100764744 0.1307312029 0)
(1.079357539 0.1069385885 0)
(1.062495003 0.08731805855 0)
(1.049219271 0.07115976032 0)
(1.038777486 0.05788066085 0)
(1.030568062 0.04699257153 0)
(1.024112526 0.03808524711 0)
(1.019033335 0.03081450411 0)
(1.015034123 0.02489239345 0)
(1.01188275 0.02007871223 0)
(1.009397446 0.01617367022 0)
(1.007435831 0.01301158897 0)
(1.005886311 0.01045550392 0)
(1.004661365 0.008392544576 0)
(1.003692298 0.006729985546 0)
(1.002925147 0.005391880184 0)
(1.002317482 0.004316200802 0)
(1.001835906 0.003452421289 0)
(1.001454101 0.002759483133 0)
(1.001151307 0.00220409401 0)
(1.000911127 0.001759311914 0)
(1.000720596 0.001403371232 0)
(1.000569456 0.001118715264 0)
(1.000449578 0.0008912013528 0)
(1.000354524 0.0007094502282 0)
(1.000279183 0.0005643151421 0)
(1.000219503 0.0004484490566 0)
(1.000172268 0.0003559540344 0)
(1.000134927 0.0002820970171 0)
(1.00010546 0.0002230787654 0)
(1.000082263 0.0001758476837 0)
(1.000064071 0.0001379489431 0)
(1.000049889 0.0001074018277 0)
(1.000038936 8.260152525e-05 0)
(1.000030608 6.22376164e-05 0)
(1.000024443 4.522732821e-05 0)
(1.000020097 3.066109418e-05 0)
(1.000017328 1.77555981e-05 0)
(1.000015981 5.813331118e-06 0)
(1.000484363 -0.01657746209 0)
(1.001486407 -0.01738972446 0)
(1.002591097 -0.01905084612 0)
(1.003876046 -0.02163538035 0)
(1.005433411 -0.02525860024 0)
(1.007377289 -0.03008076045 0)
(1.00985285 -0.03631302888 0)
(1.013048062 -0.0442253788 0)
(1.017209504 -0.05415695406 0)
(1.022665318 -0.06652985493 0)
(1.029861414 -0.0818681696 0)
(1.039421823 -0.1008259723 0)
(1.052248221 -0.1242322678 0)
(1.069669159 -0.1531694272 0)
(1.0936186 -0.1891129433 0)
(1.126745104 -0.2341591329 0)
(1.170964312 -0.2876724998 0)
(1.235968308 -0.368343864 0)
(1.326519767 -0.4643280404 0)
(1.423117309 -0.4677097367 7.099188906e-21)
(1.529504556 -0.6018284804 0)
(1.809150435 -0.4902123878 -6.215584054e-21)
(0 0 0)
(0 0 0)
(0 0 0)
(0 0 0)
(0 0 0)
(0 0 0)
(1.809125619 0.4901545281 6.215420141e-21)
(1.529473389 0.6017404722 4.735266346e-21)
(1.423106679 0.4675793937 6.827114409e-21)
(1.326515694 0.4641845379 0)
(1.235976518 0.3681789253 0)
(1.170983287 0.2874675497 0)
(1.126776316 0.2339051448 0)
(1.093664247 0.1887973848 0)
(1.069732007 0.1527757762 0)
(1.052332138 0.1237398967 0)
(1.039531958 0.100209129 0)
(1.030004487 0.08109469664 0)
(1.022850002 0.06555959084 0)
(1.017446938 0.05293974106 0)
(1.013352518 0.04269858356 0)
(1.010242603 0.03439846283 0)
(1.007875757 0.02768085834 0)
(1.00607065 0.02225168517 0)
(1.004690711 0.01786980538 0)
(1.00363304 0.01433775941 0)
(1.002820105 0.01149415015 0)
(1.002193472 0.009207328441 0)
(1.001709057 0.007370137175 0)
(1.001333544 0.005895535537 0)
(1.001041694 0.004712960859 0)
(1.000814328 0.003765311872 0)
(1.000636828 0.003006456261 0)
(1.000498007 0.002399177727 0)
(1.000389272 0.001913491803 0)
(1.000304002 0.001525267936 0)
(1.000237073 0.001215106322 0)
(1.000184509 0.0009674240921 0)
(1.000143214 0.0007697137977 0)
(1.000110772 0.000611942524 0)
(1.000085293 0.0004860660382 0)
(1.000065295 0.0003856365393 0)
(1.000049617 0.0003054858862 0)
(1.000037346 0.0002414707531 0)
(1.000027765 0.0001902662702 0)
(1.000020313 0.0001491997234 0)
(1.00001455 0.0001161164784 0)
(1.000010133 8.927163968e-05 0)
(1.000006799 6.724134794e-05 0)
(1.000004346 4.884990635e-05 0)
(1.000002627 3.310970009e-05 0)
(1.000001536 1.917058422e-05 0)
(1.000001007 6.276097924e-06 0)
(0.9999532946 -0.01701555746 0)
(0.9998684422 -0.01786973818 0)
(0.9998111238 -0.01961925052 0)
(0.9998061352 -0.02234821645 0)
(0.9998888251 -0.02618745949 0)
(1.00011123 -0.03132034984 0)
(1.000550447 -0.03799113233 0)
(1.001320358 -0.04651636395 0)
(1.002588029 -0.05730051094 0)
(1.004595992 -0.07085753868 0)
(1.007690968 -0.08784184947 0)
(1.012358632 -0.1090945929 0)
(1.019263106 -0.1357142505 0)
(1.029285325 -0.1691580443 0)
(1.04353526 -0.2113619021 0)
(1.063274298 -0.264828581 0)
(1.087879754 -0.3258965406 0)
(1.132240357 -0.4395937869 0)
(1.195770822 -0.5607559459 0)
(1.265670035 -0.6682999241 -4.731353684e-21)
(1.461664224 -0.7518027107 -4.262325106e-21)
(0 0 0)
(0 0 0)
(0 0 0)
(0 0 0)
(0 0 0)
(0 0 0)
(0 0 0)
(0 0 0)
(1.461611519 0.7517002724 -4.262973209e-21)
(1.265620459 0.6681771949 4.730955902e-21)
(1.195733641 0.5605939961 0)
(1.132202732 0.4394227097 0)
(1.087842452 0.3256866298 0)
(1.063235351 0.264568952 0)
(1.043493077 0.2110407736 0)
(1.029237607 0.1687582854 0)
(1.019207641 0.1352146529 0)
(1.012293126 0.1084687821 0)
(1.007612907 0.08705694175 0)
(1.004502527 0.06987247527 0)
(1.002475892 0.05606398502 0)
(1.001185797 0.04496423963 0)
(1.000389197 0.0360432282 0)
(0.9999185425 0.02887643037 0)
(0.9996595861 0.02312224129 0)
(0.9995351289 0.01850514929 0)
(0.9994935364 0.01480277863 0)
(0.9995007327 0.01183567537 0)
(0.9995346318 0.009459129439 0)
(0.9995812586 0.007556561873 0)
(0.9996320546 0.006034152758 0)
(0.9996820197 0.004816471184 0)
(0.999728445 0.003842922543 0)
(0.9997700597 0.003064866724 0)
(0.9998064663 0.00244328442 0)
(0.9998377723 0.001946890968 0)
(0.9998643551 0.001550614858 0)
(0.9998867156 0.001234372395 0)
(0.9999053905 0.0009820811589 0)
(0.9999209017 0.0007808664647 0)
(0.9999337297 0.0006204237641 0)
(0.9999443014 0.0004925071862 0)
(0.9999529874 0.0003905180938 0)
(0.9999601038 0.0003091745796 0)
(0.9999659161 0.0002442473361 0)
(0.9999706455 0.00019234592 0)
(0.999974474 0.0001507473658 0)
(0.99997755 0.0001172586927 0)
(0.9999799934 9.01048186e-05 0)
(0.9999818992 6.783801029e-05 0)
(0.9999833419 4.926393772e-05 0)
(0.9999843777 3.33798376e-05 0)
(0.9999850467 1.932275302e-05 0)
(0.9999853748 6.325191769e-06 0)
(0.9994058015 -0.0163740126 0)
(0.9981977682 -0.01721710445 0)
(0.9969313518 -0.01894682572 0)
(0.9955695605 -0.02165249462 0)
(0.9940788962 -0.02547379904 0)
(0.9924318728 -0.03060796683 0)
(0.9906104836 -0.03731996113 0)
(0.9886107982 -0.04595653145 0)
(0.9864493012 -0.05696562331 0)
(0.9841727927 -0.07092361242 0)
(0.981874793 -0.08857354884 0)
(0.9797181665 -0.1108764419 0)
(0.9779479463 -0.1390717896 0)
(0.9768481097 -0.1747318103 0)
(0.9765802815 -0.2197842253 0)
(0.9769101196 -0.276495202 0)
(0.9752088064 -0.3371569673 0)
(0.9945066853 -0.4920555005 0)
(1.024560124 -0.6454323408 9.406381408e-21)
(0 0 0)
(0 0 0)
(0 0 0)
(0 0 0)
(0 0 0)
(0 0 0)
(0 0 0)
(0 0 0)
(0 0 0)
(0 0 0)
(0 0 0)
(0 0 0)
(1.024490895 0.645274432 1.572886073e-21)
(0.9944256414 0.4918871203 0)
(0.9751168802 0.3369549293 0)
(0.9768022826 0.2762452737 0)
(0.9764517017 0.2194773988 0)
(0.9766916 0.1743512481 0)
(0.9777553075 0.1385969149 0)
(0.9794796972 0.1102818354 0)
(0.9815787639 0.08782762223 0)
(0.9838048493 0.06998697307 0)
(0.9859917665 0.05578904524 0)
(0.9880418518 0.04447842935 0)
(0.9899031893 0.03546323632 0)
(0.9915530244 0.02827606208 0)
(0.9929876561 0.0225457586 0)
(0.9942158695 0.0179767719 0)
(0.9952541044 0.01433351704 0)
(0.9961227672 0.01142820207 0)
(0.9968435487 0.009111167438 0)
(0.9974376403 0.007263164763 0)
(0.9979246763 0.005789179982 0)
(0.9983222087 0.004613499001 0)
(0.9986455352 0.003675773151 0)
(0.9989077454 0.002927887314 0)
(0.9991198857 0.002331468361 0)
(0.9992911803 0.001855903884 0)
(0.9994292684 0.001476766407 0)
(0.9995404356 0.001174559601 0)
(0.9996298266 0.00093371996 0)
(0.9997016343 0.0007418214619 0)
(0.9997592633 0.0005889413322 0)
(0.99980547 0.0004671543945 0)
(0.99984248 0.0003701291702 0)
(0.9998720854 0.0002928050761 0)
(0.9998957257 0.0002311347629 0)
(0.999914554 0.0001818772252 0)
(0.9999294906 0.0001424321444 0)
(0.9999412668 0.0001107068932 0)
(0.9999504594 8.500904392e-05 0)
(0.999957519 6.395935168e-05 0)
(0.9999627915 4.642063904e-05 0)
(0.9999665353 3.143878724e-05 0)
(0.9999689338 1.819326219e-05 0)
(0.9999701044 5.954479045e-06 0)
(0.9988774843 -0.01465558165 0)
(0.9965826817 -0.01542919671 0)
(0.994137303 -0.01701922659 0)
(0.9914369741 -0.01951391138 0)
(0.9883721717 -0.02305236017 0)
(0.9848280269 -0.02783304623 0)
(0.9806862248 -0.03412572724 0)
(0.9758291321 -0.04228713045 0)
(0.9701439745 -0.05278052313 0)
(0.9635194089 -0.06619873742 0)
(0.955818154 -0.08328917 0)
(0.9468029315 -0.1049777998 0)
(0.936003929 -0.1323886397 0)
(0.9225629637 -0.1668596175 0)
(0.9051641829 -0.2099721424 0)
(0.8821828991 -0.2636331877 0)
(0.8512866608 -0.3173888326 0)
(0.8218337633 -0.5491876387 -3.15900319e-21)
(0.9211005397 -0.7050659585 0)
(0 0 0)
(0 0 0)
(0 0 0)
(0 0 0)
(0 0 0)
(0 0 0)
(0 0 0)
(0 0 0)
(0 0 0)
(0 0 0)
(0 0 0)
(0 0 0)
(0.9210084253 0.7049209882 0)
(0.8217518636 0.5490221767 -2.921416206e-21)
(0.8511607777 0.3172112731 0)
(0.8820216594 0.2634100995 0)
(0.9049620883 0.2097001352 0)
(0.9223097855 0.1665233285 0)
(0.9356869347 0.131969537 0)
(0.9464061925 0.1044531223 0)
(0.9553217507 0.08263069566 0)
(0.9628984667 0.06537129548 0)
(0.9693674599 0.05174015655 0)
(0.9748583475 0.04097880418 0)
(0.979472939 0.03248045651 0)
(0.9833121673 0.02576428945 0)
(0.9864789864 0.02045147898 0)
(0.9890735561 0.01624444564 0)
(0.9911883496 0.01290966182 0)
(0.9929053501 0.01026380841 0)
(0.9942951965 0.008162822539 0)
(0.995417578 0.00649332012 0)
(0.9963222614 0.005165913471 0)
(0.9970503542 0.004110014691 0)
(0.9976355833 0.003269793307 0)
(0.9981054808 0.002601027358 0)
(0.998482435 0.002068644679 0)
(0.9987845958 0.001644798745 0)
(0.9990266402 0.0013073589 0)
(0.9992204124 0.001038722733 0)
(0.9993754539 0.0008248799046 0)
(0.9994994394 0.0006546725962 0)
(0.9995985338 0.0005192100469 0)
(0.9996776829 0.0004114044498 0)
(0.9997408495 0.0003256023789 0)
(0.9997912044 0.0002572916252 0)
(0.9998312809 0.0002028677647 0)
(0.9998630985 0.0001594476548 0)
(0.999888263 0.0001247204735 0)
(0.9999080456 9.682821459e-05 0)
(0.9999234466 7.426953834e-05 0)
(0.999935245 5.582200789e-05 0)
(0.9999440379 4.047848601e-05 0)
(0.9999502704 2.739464024e-05 0)
(0.999954258 1.584491562e-05 0)
(0.9999562026 5.184526576e-06 0)
(0.9984082297 -0.01193858128 0)
(0.9951451604 -0.01258276743 0)
(0.9916394859 -0.01390865158 0)
(0.9877157957 -0.01599384331 0)
(0.9831771625 -0.01896138915 0)
(0.9777943748 -0.02298815785 0)
(0.9712927666 -0.02831656186 0)
(0.9633359953 -0.03526961802 0)
(0.9535071468 -0.04426851547 0)
(0.9412900813 -0.05585027231 0)
(0.9260577261 -0.07068109144 0)
(0.9070757378 -0.08956067036 0)
(0.8835212639 -0.1134179393 0)
(0.8544857962 -0.1433114086 0)
(0.818873252 -0.180456015 0)
(0.7750416563 -0.2262696228 0)
(0.7219164108 -0.2706468923 0)
(0.662285988 -0.444295736 3.168395419e-21)
(0 0 0)
(0 0 0)
(0 0 0)
(0 0 0)
(0 0 0)
(0 0 0)
(0 0 0)
(0 0 0)
(0 0 0)
(0 0 0)
(0 0 0)
(0 0 0)
(0 0 0)
(0 0 0)
(0.6621583204 0.4441720565 3.167873856e-21)
(0.7217529864 0.2705094623 0)
(0.7748311875 0.2260888884 0)
(0.8186079709 0.1802374167 0)
(0.8541512944 0.1430421352 0)
(0.8830998541 0.1130826957 0)
(0.9065455832 0.08914081183 0)
(0.9253916702 0.0701535992 0)
(0.9404541921 0.05518651486 0)
(0.9524589392 0.04343272308 0)
(0.9620222519 0.03421698319 0)
(0.9696468411 0.02699085753 0)
(0.9757328377 0.02131873839 0)
(0.9805956168 0.01685940218 0)
(0.9844836565 0.01334743054 0)
(0.987593463 0.01057685228 0)
(0.9900811253 0.008387750417 0)
(0.9920710619 0.006655717818 0)
(0.9936626746 0.005283716629 0)
(0.9949354854 0.004195845349 0)
(0.9959531548 0.00333257469 0)
(0.9967666603 0.002647100057 0)
(0.9974168236 0.002102539758 0)
(0.997936331 0.001669774213 0)
(0.9983513491 0.001325773121 0)
(0.9986828204 0.001052295343 0)
(0.9989475013 0.000834874673 0)
(0.9991587951 0.0006620263461 0)
(0.999327419 0.0005246241946 0)
(0.999461939 0.0004154104331 0)
(0.9995691986 0.0003286089184 0)
(0.9996546619 0.0002596193968 0)
(0.9997226879 0.0002047752629 0)
(0.9997767504 0.0001611511183 0)
(0.9998196127 0.0001264096954 0)
(0.9998534678 9.867976488e-05 0)
(0.9998800494 7.645835849e-05 0)
(0.9999007194 5.853233121e-05 0)
(0.9999165376 4.391496103e-05 0)
(0.9999283155 3.179417694e-05 0)
(0.9999366575 2.148993004e-05 0)
(0.9999419917 1.241848519e-05 0)
(0.999944592 4.061495579e-06 0)
(0.9980397304 -0.008382989243 0)
(0.9940154123 -0.008843684804 0)
(0.9896735853 -0.009792385105 0)
(0.9847814967 -0.01128551532 0)
(0.9790729772 -0.01341231722 0)
(0.9722313569 -0.01630059747 0)
(0.9638684075 -0.0201247 0)
(0.9534978759 -0.0251158497 0)
(0.9405022505 -0.03157498548 0)
(0.924092473 -0.03988833233 0)
(0.9032641684 -0.05054631102 0)
(0.8767621851 -0.06416599525 0)
(0.8430739302 -0.08151264279 0)
(0.8004650744 -0.1035007373 0)
(0.7470274576 -0.1311274752 0)
(0.6806396949 -0.1652685847 0)
(0.595366505 -0.2118270602 3.676809278e-21)
(0.5512450384 -0.3591533959 -2.934528072e-21)
(0 0 0)
(0 0 0)
(0 0 0)
(0 0 0)
(0 0 0)
(0 0 0)
(0 0 0)
(0 0 0)
(0 0 0)
(0 0 0)
(0 0 0)
(0 0 0)
(0 0 0)
(0 0 0)
(0.5511323322 0.3590495366 -2.933984053e-21)
(0.5952022936 0.2117488151 3.675821358e-21)
(0.6804097033 0.1651455465 0)
(0.7467243397 0.1309792473 0)
(0.800074252 0.1033181755 0)
(0.842576031 0.0812848663 0)
(0.8761321237 0.06387981761 0)
(0.9024699223 0.05018552399 0)
(0.9230934855 0.03943281891 0)
(0.9392473766 0.03099962213 0)
(0.9519227672 0.02438914219 0)
(0.9618922065 0.01920707593 0)
(0.9697525272 0.01514225647 0)
(0.9759640468 0.01195051105 0)
(0.9808824292 0.009441093165 0)
(0.9847834103 0.007465391231 0)
(0.9878816415 0.005907732065 0)
(0.9903449394 0.004678048498 0)
(0.9923050356 0.003706125276 0)
(0.9938656999 0.002937128227 0)
(0.9951089123 0.002328148968 0)
(0.996099588 0.001845540502 0)
(0.9968892208 0.001462863337 0)
(0.9975187148 0.001159300279 0)
(0.998020596 0.0009184308254 0)
(0.9984207496 0.0007272812239 0)
(0.9987397877 0.0005755859364 0)
(0.9989941314 0.0004552119954 0)
(0.9991968658 0.0003597088766 0)
(0.9993584199 0.0002839556044 0)
(0.9994871049 0.0002238831805 0)
(0.999589543 0.0001762558391 0)
(0.999671008 0.0001384982814 0)
(0.9997356962 0.0001085587256 0)
(0.9997869417 8.480021155e-05 0)
(0.9998273874 6.591412452e-05 0)
(0.9998591205 5.085100109e-05 0)
(0.9998837797 3.876509892e-05 0)
(0.9999026393 2.896971837e-05 0)
(0.9999166742 2.090080805e-05 0)
(0.9999266103 1.408691707e-05 0)
(0.9999329619 8.124094008e-06 0)
(0.9999360575 2.654230324e-06 0)
(0.9978061112 -0.004224676671 0)
(0.9932995696 -0.004462606917 0)
(0.988429576 -0.004952430445 0)
(0.9829294384 -0.005722851647 0)
(0.9764940334 -0.006818912438 0)
(0.9687607654 -0.008304539103 0)
(0.9592871903 -0.01026639731 0)
(0.947525573 -0.01281987134 0)
(0.9327966452 -0.01611868617 0)
(0.914266982 -0.02037025141 0)
(0.8909330026 -0.02585794566 0)
(0.861603327 -0.03296687007 0)
(0.8248488736 -0.04219861697 0)
(0.7788759023 -0.05414435412 0)
(0.7213145223 -0.0693738626 0)
(0.6490300895 -0.08821132958 0)
(0.5576832946 -0.1283494672 0)
(0.3811483008 -0.1755435438 1.212522322e-21)
(0 0 0)
(0 0 0)
(0 0 0)
(0 0 0)
(0 0 0)
(0 0 0)
(0 0 0)
(0 0 0)
(0 0 0)
(0 0 0)
(0 0 0)
(0 0 0)
(0 0 0)
(0 0 0)
(0.381041217 0.1755079785 1.212176186e-21)
(0.557506598 0.1283103113 1.824715467e-21)
(0.6487794353 0.08815880633 0)
(0.7209830687 0.06930919951 0)
(0.7784475429 0.0540630225 0)
(0.8243022428 0.04209518382 0)
(0.8609107518 0.03283473373 0)
(0.890059104 0.02568897109 0)
(0.9131668715 0.02015430967 0)
(0.9314136265 0.01584308463 0)
(0.9457882186 0.01246864701 0)
(0.9571056313 0.00981943224 0)
(0.9660219891 0.007736445071 0)
(0.973055929 0.006097617497 0)
(0.9786132557 0.004807801782 0)
(0.9830103636 0.003792295543 0)
(0.9864940295 0.002992348833 0)
(0.9892571396 0.002361797321 0)
(0.9914508499 0.00186441608 0)
(0.9931939143 0.001471805031 0)
(0.9945798435 0.001161701364 0)
(0.9956824197 0.0009166429575 0)
(0.9965599623 0.000722918293 0)
(0.9972586394 0.0005697460642 0)
(0.9978150486 0.0004486363535 0)
(0.9982582335 0.0003528939384 0)
(0.9986112647 0.0002772317431 0)
(0.9988924821 0.0002174695864 0)
(0.9991164732 0.0001702989976 0)
(0.9992948455 0.0001330991481 0)
(0.9994368372 0.0001037922986 0)
(0.9995498003 8.073009832e-05 0)
(0.9996395841 6.260399304e-05 0)
(0.9997108386 4.837436708e-05 0)
(0.9997672558 3.721425504e-05 0)
(0.9998117604 2.846484727e-05 0)
(0.9998466611 2.159985429e-05 0)
(0.9998737694 1.619692611e-05 0)
(0.9998944933 1.19148043e-05 0)
(0.99990991 8.474715213e-06 0)
(0.9999208211 5.644954299e-06 0)
(0.9999277942 3.228084372e-06 0)
(0.9999311923 1.049988141e-06 0)
(0.9977276069 0.000246071441 0)
(0.9930595575 0.0002504106273 0)
(0.9880147048 0.0002593132175 0)
(0.9823181837 0.0002732599571 0)
(0.975658607 0.000293052677 0)
(0.9676711821 0.0003199093982 0)
(0.9579175543 0.0003555842439 0)
(0.9458586411 0.0004024981416 0)
(0.9308124395 0.0004638488011 0)
(0.911883148 0.0005436273207 0)
(0.8878463036 0.0006463702821 0)
(0.8569887002 0.0007762803395 0)
(0.8169430429 0.0009351433397 0)
(0.7646171269 0.001119071698 0)
(0.6963488281 0.001318220187 0)
(0.6083547139 0.0015354132 0)
(0.4897960785 0.05091216314 -4.884024418e-22)
(0.3600065629 0.06210090938 -3.02637197e-22)
(0 0 0)
(0 0 0)
(0 0 0)
(0 0 0)
(0 0 0)
(0 0 0)
(0 0 0)
(0 0 0)
(0 0 0)
(0 0 0)
(0 0 0)
(0 0 0)
(0 0 0)
(0 0 0)
(0.3598979844 -0.06205682945 -3.025467641e-22)
(0.4896370957 -0.05086881784 -3.372326271e-22)
(0.6081029029 -0.001511246784 0)
(0.6960114091 -0.001292999052 0)
(0.7641786733 -0.001092149077 0)
(0.8163822046 -0.0009059340855 0)
(0.8562772606 -0.000744216938 0)
(0.8869478884 -0.0006108770887 0)
(0.9107514682 -0.0005041009246 0)
(0.9293889644 -0.0004196401649 0)
(0.9440695843 -0.0003528954931 0)
(0.9556700257 -0.0002997971723 0)
(0.964848301 -0.0002570531605 0)
(0.9721133094 -0.0002221314907 0)
(0.9778653715 -0.000193147582 0)
(0.9824212843 -0.0001687286953 0)
(0.9860317834 -0.0001478861505 0)
(0.9888949875 -0.0001299081763 0)
(0.9911672096 -0.0001142767563 0)
(0.9929717023 -0.00010060683 0)
(0.9944056705 -8.860402566e-05 0)
(0.9955458361 -7.803626098e-05 0)
(0.9964528216 -6.871504225e-05 0)
(0.9971745867 -6.048327362e-05 0)
(0.9977491196 -5.320739261e-05 0)
(0.9982065439 -4.677208243e-05 0)
(0.9985707699 -4.107666202e-05 0)
(0.9988607918 -3.603259161e-05 0)
(0.9990917085 -3.156156648e-05 0)
(0.9992755278 -2.759406693e-05 0)
(0.9994218016 -2.406821132e-05 0)
(0.9995381285 -2.092875436e-05 0)
(0.9996305516 -1.812624878e-05 0)
(0.9997038735 -1.561633687e-05 0)
(0.9997619059 -1.335911012e-05 0)
(0.9998076678 -1.131850333e-05 0)
(0.9998435413 -9.461762748e-06 0)
(0.9998713955 -7.758959897e-06 0)
(0.9998926828 -6.18255924e-06 0)
(0.999908514 -4.706988027e-06 0)
(0.9999197157 -3.308256558e-06 0)
(0.9999268734 -1.96357773e-06 0)
(0.999930361 -6.509807928e-07 0)
(0.9978094175 0.004713509992 0)
(0.9933097183 0.004959888493 0)
(0.9884473169 0.005466996704 0)
(0.9829562235 0.006264378512 0)
(0.9765323202 0.007398497628 0)
(0.9688144286 0.008935486288 0)
(0.9593620055 0.01096526433 0)
(0.9476297222 0.01360780578 0)
(0.9329412197 0.01702297984 0)
(0.9144665352 0.02142587633 0)
(0.8912062303 0.02710856767 0)
(0.8619734545 0.03446455254 0)
(0.8253409681 0.04400169302 0)
(0.779501983 0.05631558796 0)