/*--------------------------------*- C++ -*----------------------------------*\
| =========                 |                                                 |
| \\      /  F ield         | foam-extend: Open Source CFD                    |
|  \\    /   O peration     | Version:     3.1                                |
|   \\  /    A nd           | Web:         http://www.foam-extend.org         |
|    \\/     M anipulation  | For copyright notice see file Copyright         |
\*---------------------------------------------------------------------------*/
FoamFile
{
    version     2.0;
    format      ascii;
    class       volScalarField;
    location    "0";
    object      k;
}
// * * * * * * * * * * * * * * * * * * * * * * * * * * * * * * * * * * * * * //

dimensions      [0 2 -2 0 0 0 0];

internalField   uniform 3.75e-05;

boundaryField
{
    oversetFaces
    {
        type            overset;
        coupledFringe   yes;
        setHoleCellValue yes;
        holeCellValue   3.72e-05;
        value           nonuniform 0();
    }
    x_min
    {
        type            zeroGradient;
    }
    x_max
    {
        type            zeroGradient;
    }
    y_min
    {
        type            zeroGradient;
    }
    y_max
    {
        type            zeroGradient;
    }
    z_min
    {
        type            zeroGradient;
    }
    z_max
    {
        type            zeroGradient;
    }
    hull
    {
        type            kqRWallFunction;
        value           uniform 3.75e-05;
    }
    sailAll
    {
        type            kqRWallFunction;
        value           uniform 3.75e-05;
    }
    sternFins
    {
        type            kqRWallFunction;
        value           uniform 3.75e-05;
    }
    inlet
    {
        type            fixedValue;
        value           uniform 3.75e-05;
    }
    outlet
    {
        type            zeroGradient;
    }
    sides
    {
        type            zeroGradient;
    }
}


// ************************************************************************* //
