/*--------------------------------*- C++ -*----------------------------------*\
| =========                 |                                                 |
| \\      /  F ield         | foam-extend: Open Source CFD                    |
|  \\    /   O peration     | Version:     3.2                                |
|   \\  /    A nd           | Web:         http://www.foam-extend.org         |
|    \\/     M anipulation  | For copyright notice see file Copyright         |
\*---------------------------------------------------------------------------*/
FoamFile
{
    version     2.0;
    format      ascii;
    class       polyBoundaryMesh;
    location    "0.0001/polyMesh";
    object      boundary;
}
// * * * * * * * * * * * * * * * * * * * * * * * * * * * * * * * * * * * * * //

9
(
    overset
    {
        type            overset;
        nFaces          0;
        startFace       3087955;
    }
    propellerFarfield
    {
        type            patch;
        nFaces          10400;
        startFace       3087955;
    }
    propeller
    {
        type            wall;
        nFaces          60982;
        startFace       3098355;
    }
    shaft
    {
        type            wall;
        nFaces          1766;
        startFace       3159337;
    }
    inlet
    {
        type            patch;
        nFaces          6400;
        startFace       3161103;
    }
    outlet
    {
        type            patch;
        nFaces          7120;
        startFace       3167503;
    }
    farfield
    {
        type            patch;
        nFaces          9680;
        startFace       3174623;
    }
    shaftLong
    {
        type            wall;
        nFaces          2160;
        startFace       3184303;
    }
    propellerHole
    {
        type            patch;
        nFaces          10320;
        startFace       3186463;
    }
)

// ************************************************************************* //
