/*--------------------------------*- C++ -*----------------------------------*\
| =========                 |                                                 |
| \\      /  F ield         | OpenFOAM Extend Project: Open source CFD        |
|  \\    /   O peration     | Version:  1.6-ext                               |
|   \\  /    A nd           | Web:      www.extend-project.de                 |
|    \\/     M anipulation  |                                                 |
\*---------------------------------------------------------------------------*/
FoamFile
{
    version     2.0;
    format      ascii;
    class       volScalarField;
    location    "0";
    object      divFlux;
}
// * * * * * * * * * * * * * * * * * * * * * * * * * * * * * * * * * * * * * //

dimensions      [0 0 -1 0 0 0 0];

internalField   nonuniform List<scalar> 
2675
(
-3.790916687e-13
-2.235202328e-11
-1.793645152e-11
-1.799995784e-11
-1.770654258e-11
-1.874219056e-11
-1.880290446e-11
-2.05814621e-11
-2.1613133e-11
-2.180377888e-11
-2.320616419e-11
-2.504712811e-11
-2.576994084e-11
-2.841562837e-11
-2.931563261e-11
-3.160846025e-11
-3.250406432e-11
-3.532220471e-11
-3.625064082e-11
-3.930402113e-11
-4.011636042e-11
-4.209779133e-11
-4.079195593e-11
-4.014208449e-11
-3.93288144e-11
-3.679211573e-11
-3.474781313e-11
-3.172658792e-11
-2.911288626e-11
-3.316950559e-11
-2.432143834e-11
-2.384892766e-12
-1.336095047e-11
-7.857013309e-12
-4.56602376e-12
-3.990955237e-12
-3.465642496e-12
-1.31920516e-12
8.380633676e-13
2.093635283e-12
3.569469612e-12
4.717406571e-12
5.720476357e-12
6.566451571e-12
7.169148091e-12
7.67093684e-12
8.315900389e-12
8.639101422e-12
8.745170932e-12
8.678248137e-12
8.930877194e-12
8.83287819e-12
8.686540767e-12
8.606919882e-12
8.436725281e-12
8.214659432e-12
8.089857462e-12
7.830436433e-12
7.5149238e-12
7.323196391e-12
6.945387224e-12
6.628841978e-12
6.331451625e-12
5.874961633e-12
5.424875887e-12
5.060721232e-12
4.517912919e-12
4.130899322e-12
3.570920938e-12
3.036202467e-12
2.601504264e-12
2.107447422e-12
1.630266718e-12
1.154978799e-12
6.877805989e-13
-2.264801941e-11
-3.554018242e-11
-3.191427215e-11
-3.218352877e-11
-3.362162317e-11
-3.524655561e-11
-3.624217895e-11
-3.700983958e-11
-3.969055924e-11
-4.172682306e-11
-4.449622309e-11
-4.735836519e-11
-4.918883639e-11
-5.193894336e-11
-5.529661242e-11
-5.925202782e-11
-6.305039095e-11
-6.522339855e-11
-6.876655175e-11
-7.016783703e-11
-7.193129024e-11
-7.342260978e-11
-7.493356086e-11
-7.169165015e-11
-6.913565842e-11
-6.453866422e-11
-5.860892588e-11
-5.338423035e-11
-3.474510534e-11
-3.509914988e-11
-4.059124043e-11
-1.975202984e-11
-2.495573994e-11
-1.160494371e-11
-1.044939107e-11
-7.508045889e-12
-3.443641641e-12
6.055312458e-13
3.823410259e-12
6.463851426e-12
8.515008133e-12
1.027439965e-11
1.163151397e-11
1.292905675e-11
1.414680412e-11
1.465925482e-11
1.519620263e-11
1.537237871e-11
1.577791372e-11
1.576403625e-11
1.576541131e-11
1.536150521e-11
1.525244232e-11
1.51418034e-11
1.460278243e-11
1.435066109e-11
1.385932274e-11
1.332311535e-11
1.299253398e-11
1.234254091e-11
1.167574045e-11
1.10782612e-11
1.037750486e-11
9.597455526e-12
8.790350695e-12
8.000104151e-12
7.203247104e-12
6.179178664e-12
5.379349717e-12
4.54604053e-12
3.621098408e-12
2.81468383e-12
1.921713808e-12
1.1255892e-12
5.253127409e-13
-1.821264688e-11
-2.894720289e-11
-2.793524814e-11
-2.690704661e-11
-2.744031351e-11
-2.830308553e-11
-3.041719853e-11
-3.13087409e-11
-3.324972409e-11
-3.542374712e-11
-3.675429118e-11
-3.829976668e-11
-4.139207158e-11
-4.42298435e-11
-4.774118008e-11
-4.907341651e-11
-5.310397329e-11
-5.579281634e-11
-5.932243056e-11
-6.383632921e-11
-6.580489809e-11
-6.935346689e-11
-1.726735473e-10
-1.408758797e-10
-1.307307774e-10
-1.243711762e-10
-1.020623084e-10
-1.003509803e-10
-1.940001615e-11
-6.870901105e-11
-4.981806086e-11
-2.136993892e-11
-4.395974068e-11
-1.541007633e-11
-2.794447158e-12
-3.461919275e-12
-2.051156707e-12
4.054926956e-13
3.537060659e-12
5.788255916e-12
7.427150434e-12
8.841636223e-12
1.030993949e-11
1.13475337e-11
1.198225838e-11
1.279510539e-11
1.304625362e-11
1.340342905e-11
1.348191287e-11
1.363181486e-11
1.342270095e-11
1.337954543e-11
1.321216969e-11
1.293326653e-11
1.269936993e-11
1.214696864e-11
1.20374139e-11
1.155280274e-11
1.119533379e-11
1.073485746e-11
1.010538706e-11
9.585872023e-12
8.981602124e-12
8.372023726e-12
7.636886417e-12
6.93948441e-12
6.121264783e-12
5.533944071e-12
4.639159417e-12
3.898514788e-12
3.165490136e-12
2.428061016e-12
1.720983228e-12
1.004973169e-12
4.982347646e-13
-1.673418938e-11
-2.777396495e-11
-2.352610741e-11
-2.5461675e-11
-2.530555355e-11
-2.735484864e-11
-2.726329124e-11
-2.901608249e-11
-3.087261624e-11
-3.155938142e-11
-3.479181484e-11
-3.754767589e-11
-3.842432537e-11
-4.150647603e-11
-4.322998922e-11
-4.782106011e-11
-5.022693831e-11
-5.452692095e-11
-5.727127385e-11
-6.214666349e-11
-1.610300175e-10
-2.489819924e-10
-0
0
-0
0
-0
0
-1.650131878e-11
-6.209250754e-11
-1.456795127e-11
1.45327499e-11
-2.710234651e-11
-2.338724816e-11
-1.376915097e-12
1.640925366e-12
1.29297337e-12
2.166915056e-12
4.299982642e-12
5.888105954e-12
7.627865934e-12
9.19466534e-12
1.003611345e-11
1.12510684e-11
1.190534001e-11
1.225946917e-11
1.289656318e-11
1.310633288e-11
1.323681488e-11
1.313666867e-11
1.320512518e-11
1.288674741e-11
1.272662772e-11
1.257970855e-11
1.196416057e-11
1.194485693e-11
1.149037002e-11
1.116809979e-11
1.070662655e-11
1.031719554e-11
9.823694134e-12
9.128802922e-12
8.655492324e-12
7.983618714e-12
7.324939007e-12
6.624802759e-12
5.924554788e-12
5.167538924e-12
4.439523136e-12
3.707880314e-12
3.033374435e-12
2.312805587e-12
1.642804082e-12
9.60760076e-13
4.765723835e-13
-1.561857675e-11
-2.486105164e-11
-2.174412271e-11
-2.308084394e-11
-2.211847573e-11
-2.43334542e-11
-2.606915248e-11
-2.6266314e-11
-2.750546989e-11
-3.071014839e-11
-3.089258625e-11
-3.23290729e-11
-3.671705896e-11
-3.841552503e-11
-4.128714442e-11
-4.396921797e-11
-4.79442649e-11
-5.181641552e-11
-1.611085436e-10
-2.299218049e-10
-0
0
0
0
0
0
0
0
-0
0
-4.698299674e-11
3.267770184e-11
-3.601370853e-13
-3.900582491e-11
-1.688582604e-11
-1.793915932e-12
1.563753133e-12
3.553307445e-12
4.663166e-12
6.67133642e-12
8.068559999e-12
9.245436545e-12
1.048526939e-11
1.104756049e-11
1.178924318e-11
1.23891896e-11
1.278524731e-11
1.280944825e-11
1.293718014e-11
1.299662476e-11
1.287380076e-11
1.268876087e-11
1.232564097e-11
1.225773448e-11
1.187562828e-11
1.168795463e-11
1.117060133e-11
1.096802422e-11
1.047344393e-11
9.955001165e-12
9.479309344e-12
8.92022053e-12
8.27496346e-12
7.738366025e-12
7.05941089e-12
6.450371935e-12
5.645896894e-12
4.921448642e-12
4.30247063e-12
3.575018415e-12
2.861854858e-12
2.214802451e-12
1.544813094e-12
8.919798428e-13
4.440788119e-13
-1.319239007e-11
-2.230150593e-11
-1.860070813e-11
-1.948328092e-11
-2.073208334e-11
-2.071888283e-11
-2.248301299e-11
-2.412072285e-11
-2.526815209e-11
-2.636040996e-11
-2.911220931e-11
-2.958268915e-11
-3.282663071e-11
-3.433487399e-11
-3.757610776e-11
-4.100147177e-11
-4.390423083e-11
-2.278368007e-10
0
0
0
0
0
0
0
0
0
0
0
0
-0
-0
9.526573634e-11
3.040856743e-12
-1.439194442e-11
-2.927129242e-12
1.951645144e-12
4.275612463e-12
5.617326191e-12
7.137077613e-12
8.417865893e-12
9.557848697e-12
1.051623982e-11
1.105238375e-11
1.174659537e-11
1.220302851e-11
1.23094365e-11
1.274336107e-11
1.254979584e-11
1.25278373e-11
1.257120437e-11
1.220772485e-11
1.193232279e-11
1.173785849e-11
1.14155248e-11
1.110162125e-11
1.090570786e-11
1.061784834e-11
9.90474296e-12
9.57835286e-12
9.059547824e-12
8.608355755e-12
8.006346761e-12
7.387313548e-12
6.654558123e-12
5.995601422e-12
5.471124951e-12
4.747967796e-12
4.07361909e-12
3.366618482e-12
2.685284108e-12
2.073877152e-12
1.447742416e-12
8.407843043e-13
4.06169645e-13
-1.25858434e-11
-1.777296824e-11
-1.563406197e-11
-1.684063967e-11
-1.764299396e-11
-1.72811645e-11
-1.975338374e-11
-1.913532893e-11
-2.162514885e-11
-2.163462614e-11
-2.335610849e-11
-2.702111259e-11
-2.676657961e-11
-3.083098386e-11
-3.366063238e-11
-3.538549948e-11
-1.147997885e-10
-0
0
0
0
0
0
0
0
0
0
0
0
0
0
0
0
4.826378502e-11
-2.868911593e-12
-1.489288698e-13
3.369854155e-12
5.247034864e-12
6.790141041e-12
7.959571144e-12
8.613165798e-12
9.929493922e-12
1.065078352e-11
1.107717703e-11
1.164742228e-11
1.207813134e-11
1.207288499e-11
1.220057457e-11
1.219405893e-11
1.225750178e-11
1.197419846e-11
1.166591146e-11
1.167618206e-11
1.142216737e-11
1.103884477e-11
1.054838434e-11
1.03749901e-11
9.963169511e-12
9.523287257e-12
9.235549382e-12
8.719826317e-12
8.166514049e-12
7.590055929e-12
7.015808473e-12
6.494944823e-12
5.804285867e-12
5.026270027e-12
4.480513282e-12
3.765797501e-12
3.184252344e-12
2.493815843e-12
1.936484849e-12
1.335387655e-12
7.7008821e-13
3.682604782e-13
-9.753487076e-12
-1.284249185e-11
-1.310692521e-11
-1.188426996e-11
-1.300149034e-11
-1.396614324e-11
-1.433643457e-11
-1.629992633e-11
-1.626438649e-11
-1.766025617e-11
-2.086425772e-11
-2.005259538e-11
-2.359574858e-11
-2.478041004e-11
-2.648903035e-11
-3.058186647e-11
-1.225332585e-10
-0
0
0
0
0
0
0
0
0
0
0
0
0
0
0
0
3.939845557e-12
7.717223256e-13
2.170299803e-12
4.299982642e-12
6.385663769e-12
7.229142732e-12
8.401619108e-12
9.393688466e-12
1.021110488e-11
1.050557787e-11
1.13026858e-11
1.145288395e-11
1.179914357e-11
1.196626545e-11
1.184073365e-11
1.179042785e-11
1.179736658e-11
1.174534725e-11
1.129899431e-11
1.0904428e-11
1.068800516e-11
1.077962074e-11
1.027048074e-11
9.889257742e-12
9.418336299e-12
9.187351113e-12
8.539796117e-12
8.225641349e-12
7.635371875e-12
7.108481789e-12
6.505655696e-12
5.936579234e-12
5.279587934e-12
4.762711278e-12
4.053075262e-12
3.504361821e-12
2.863545579e-12
2.280780723e-12
1.740532125e-12
1.196445772e-12
6.990826461e-13
3.303513113e-13
-7.879691114e-12
-8.988280389e-12
-8.302022926e-12
-9.460283364e-12
-8.472360321e-12
-1.023835209e-11
-9.936432654e-12
-1.087265369e-11
-1.275203448e-11
-1.317580481e-11
-1.370484077e-11
-1.604302403e-11
-1.682963924e-11
-1.947312668e-11
-2.103281812e-11
-6.793051923e-11
-0
0
0
0
0
0
0
0
0
0
0
0
0
0
0
0
0
0
1.653245845e-11
5.360085416e-12
6.264489825e-12
7.381456349e-12
8.493684227e-12
8.951978977e-12
9.728778423e-12
1.056921111e-11
1.079717383e-11
1.110501657e-11
1.157769649e-11
1.145914573e-11
1.153276398e-11
1.143350627e-11
1.115587239e-11
1.114817209e-11
1.080914737e-11
1.088953511e-11
1.045869912e-11
1.023985407e-11
9.805157355e-12
9.556431334e-12
9.336428065e-12
9.053206712e-12
8.432512857e-12
8.165851644e-12
7.677948291e-12
7.108861251e-12
6.746703895e-12
6.062793939e-12
5.621809659e-12
4.96332431e-12
4.30323385e-12
3.813828846e-12
3.194280649e-12
2.584930324e-12
2.068595427e-12
1.541312327e-12
1.078040611e-12
6.093115686e-13
2.978577397e-13
-5.123153123e-12
-3.740018553e-12
-4.43368015e-12
-3.908028935e-12
-4.234403168e-12
-5.921868806e-12
-5.430995866e-12
-5.969509121e-12
-6.754601197e-12
-7.84922839e-12
-8.224258363e-12
-9.762964368e-12
-1.120554356e-11
-1.158734302e-11
-1.427415523e-11
-3.666357996e-11
-0
0
0
0
0
0
0
0
0
0
0
0
0
0
0
0
0
0
9.456983235e-12
7.093075901e-12
7.842458896e-12
8.689322606e-12
9.226143487e-12
9.748071481e-12
1.035089493e-11
1.085657614e-11
1.104916824e-11
1.12451451e-11
1.117770401e-11
1.121688246e-11
1.135498014e-11
1.100893206e-11
1.084938355e-11
1.084601996e-11
1.04780768e-11
9.886105696e-12
9.908571955e-12
9.733368986e-12
9.09252002e-12
8.85307561e-12
8.641883261e-12
8.159493343e-12
7.961342847e-12
7.529938327e-12
7.129940556e-12
6.587483278e-12
6.126603693e-12
5.567264328e-12
5.087936549e-12
4.492215781e-12
3.919788947e-12
3.340513951e-12
2.801496951e-12
2.297472253e-12
1.81362068e-12
1.36306259e-12
9.204354343e-13
5.356095695e-13
2.43701787e-13
-2.171653702e-12
1.244233013e-12
1.024309074e-12
1.8599185e-13
1.568830254e-13
2.04269484e-13
-8.433943442e-13
-5.650835187e-13
-1.549537196e-12
-2.151514457e-12
-2.771769353e-12
-2.682412031e-12
-4.377493349e-12
-4.590393938e-12
-6.434404127e-12
-8.174841056e-12
-0
0
0
0
0
0
0
0
0
0
0
0
0
0
0
0
0
0
3.463950123e-11
4.038003221e-12
9.396734738e-12
9.777857255e-12
1.023107488e-11
1.052825567e-11
1.063538292e-11
1.080631264e-11
1.126401506e-11
1.091674002e-11
1.105102985e-11
1.103046752e-11
1.092816354e-11
1.074162167e-11
1.026724937e-11
1.017918248e-11
9.652769697e-12
9.594213573e-12
9.275359824e-12
8.593306852e-12
8.766505416e-12
8.369310639e-12
8.04819863e-12
7.663656989e-12
7.412487604e-12
6.806040097e-12
6.489169598e-12
5.969302201e-12
5.699657849e-12
4.993615151e-12
4.532385522e-12
4.008367513e-12
3.516099357e-12
3.002286162e-12
2.454783991e-12
2.048672356e-12
1.571777942e-12
1.190470157e-12
7.980536082e-13
4.508180201e-13
2.003770249e-13
4.115852403e-13
7.119931753e-12
4.788010279e-12
5.281728522e-12
5.903485399e-12
3.489335726e-12
5.24542711e-12
3.596716825e-12
3.524664023e-12
4.519398869e-12
3.148068605e-12
3.611102e-12
2.112082154e-12
3.035610385e-12
4.444849816e-12
-0
0
0
0
0
0
0
0
0
0
0
0
0
0
0
0
0
0
0
0
2.17395533e-11
1.027913829e-11
1.116898829e-11
1.122263653e-11
1.111762475e-11
1.119471237e-11
1.116061104e-11
1.126858447e-11
1.090372989e-11
1.101015903e-11
1.057648832e-11
1.032893638e-11
1.00563479e-11
9.834371953e-12
9.530067328e-12
9.178979152e-12
9.112669842e-12
8.446326856e-12
8.272356147e-12
7.920428395e-12
7.561895098e-12
7.357700978e-12
6.950035962e-12
6.597374408e-12
6.353223746e-12
5.789878546e-12
5.460808084e-12
5.003681138e-12
4.462457772e-12
4.033153844e-12
3.542548891e-12
3.027568883e-12
2.654214758e-12
2.131649066e-12
1.7341994e-12
1.34113185e-12
9.734453163e-13
6.655341094e-13
3.688498857e-13
1.570522627e-13
3.254772756e-12
1.249949004e-11
1.022267648e-11
9.4790264e-12
9.91874735e-12
9.907662304e-12
1.04939428e-11
9.253263773e-12
9.896746495e-12
1.040225847e-11
1.015407189e-11
1.006158368e-11
1.071543219e-11
9.250513666e-12
3.249661788e-11
-0
0
0
0
0
0
0
0
0
0
0
0
0
0
0
0
0
0
0
0
2.61163697e-11
1.156009581e-11
1.186252296e-11
1.219922067e-11
1.173407181e-11
1.173288715e-11
1.14626151e-11
1.107167681e-11
1.108923519e-11
1.086133594e-11
1.048687714e-11
1.02386271e-11
9.856626665e-12
9.264729603e-12
8.843392061e-12
8.507916031e-12
8.049113569e-12
7.9386148e-12
7.597553937e-12
7.154593679e-12
6.972912093e-12
6.448840866e-12
6.358694211e-12
5.988650791e-12
5.666005729e-12
5.171553353e-12
4.793339933e-12
4.437418577e-12
4.009741658e-12
3.497281452e-12
3.133650707e-12
2.628404987e-12
2.171788315e-12
1.820060211e-12
1.450104467e-12
1.118016737e-12
7.819160871e-13
5.194675964e-13
2.905914621e-13
1.191430959e-13
6.780325274e-12
1.715592886e-11
1.503627333e-11
1.506927461e-11
1.480890295e-11
1.514132742e-11
1.404187696e-11
1.611080359e-11
1.583604675e-11
1.517399023e-11
1.666006342e-11
1.760102309e-11
1.671658869e-11
1.856669142e-11
4.826784672e-11
-0
0
0
0
0
0
0
0
0
0
0
0
0
0
0
0
0
0
0
0
2.947234639e-11
1.27049865e-11
1.345064627e-11
1.284206875e-11
1.226496938e-11
1.241491368e-11
1.19234484e-11
1.152210202e-11
1.098671966e-11
1.02746535e-11
1.001022014e-11
9.743417454e-12
9.185653451e-12
8.536585896e-12
8.504642346e-12
7.941600253e-12
7.680170853e-12
6.942412348e-12
6.914821371e-12
6.445991597e-12
6.216061499e-12
5.99163426e-12
5.658694146e-12
5.181569097e-12
5.042486403e-12
4.622428718e-12
4.290942327e-12
3.789534362e-12
3.419043719e-12
3.098498919e-12
2.53732042e-12
2.267399734e-12
1.848632814e-12
1.455089201e-12
1.158115165e-12
8.361729996e-13
6.458891483e-13
3.79477039e-13
1.951565525e-13
8.123392901e-14
1.038169613e-11
2.228386293e-11
2.063790276e-11
1.878788464e-11
2.022521747e-11
1.913625973e-11
2.042999467e-11
2.014246041e-11
2.134133781e-11
2.224184976e-11
2.148298948e-11
2.364651978e-11
2.381304934e-11
2.513310069e-11
1.558202148e-11
1.022626854e-10
-0
0
0
0
0
0
0
0
0
0
0
0
0
0
0
0
0
0
5.157406763e-11
1.376102757e-11
1.471688014e-11
1.40135297e-11
1.392146458e-11
1.297847406e-11
1.249310133e-11
1.214481086e-11
1.139779719e-11
1.079192747e-11
1.051513978e-11
9.830828546e-12
9.443105772e-12
8.835585988e-12
8.111715523e-12
7.937189504e-12
7.137754562e-12
6.88637363e-12
6.329000988e-12
6.103851846e-12
5.85768554e-12
5.541671806e-12
4.932977937e-12
4.860512618e-12
4.697560847e-12
4.313902414e-12
3.974549791e-12
3.621488282e-12
3.216575356e-12
2.919214751e-12
2.564952384e-12
2.183988196e-12
1.7676458e-12
1.412825808e-12
1.159138687e-12
8.784788669e-13
6.492549718e-13
4.066512443e-13
2.980805248e-13
1.283324445e-13
4.87403574e-14
1.243962233e-11
2.79327942e-11
2.364541974e-11
2.44698595e-11
2.431695355e-11
2.560290357e-11
2.475671681e-11
2.639899608e-11
2.594713235e-11
2.689689237e-11
2.939382026e-11
2.814214081e-11
3.103339173e-11
3.179225202e-11
3.389756468e-11
8.725742484e-11
-0
0
0
0
0
0
0
0
0
0
0
0
0
0
0
0
0
0
3.931045215e-11
1.618044476e-11
1.61357661e-11
1.558608318e-11
1.456118177e-11
1.402977649e-11
1.303364543e-11
1.22487226e-11
1.15736348e-11
1.099027365e-11
1.030960102e-11
9.433543862e-12
8.940809311e-12
8.308453945e-12
7.498653215e-12
7.120830827e-12
6.648447068e-12
6.125842125e-12
5.878142105e-12
5.451970721e-12
4.982104367e-12
4.956829826e-12
4.704629151e-12
4.168855426e-12
4.026130163e-12
3.70473521e-12
3.407732912e-12
3.039050663e-12
2.808724576e-12
2.39316358e-12
2.052442515e-12
1.717521795e-12
1.44752806e-12
1.128293857e-12
8.352954114e-13
6.095595575e-13
4.39157707e-13
2.783551181e-13
1.700264378e-13
2.998554511e-14
2.166238107e-14
1.546152449e-11
3.29384966e-11
2.84696997e-11
2.913378707e-11
2.779046559e-11
2.934524914e-11
3.004267627e-11
3.063060683e-11
3.253926569e-11
3.170729487e-11
3.395442843e-11
3.47308894e-11
3.611525094e-11
3.911278292e-11
4.035024644e-11
1.088670039e-10
-0
0
0
0
0
0
0
0
0
0
0
0
0
0
0
0
0
0
4.229038344e-11
1.81964001e-11
1.740572319e-11
1.634291262e-11
1.571334967e-11
1.438077476e-11
1.364053058e-11
1.245722301e-11
1.193546426e-11
1.095405685e-11
1.001208175e-11
9.58704214e-12
8.442405309e-12
7.733723898e-12
7.382344845e-12
6.749206756e-12
6.186746417e-12
5.671968701e-12
5.140320137e-12
4.761313087e-12
4.507081563e-12
3.956076477e-12
3.832485612e-12
3.593289769e-12
3.356743549e-12
3.070904306e-12
2.865323232e-12
2.606667738e-12
2.118719432e-12
1.977805537e-12
1.709877687e-12
1.311406359e-12
1.030736788e-12
7.74357404e-13
5.267129156e-13
3.874024787e-13
2.548878141e-13
1.277485839e-13
3.441352309e-14
7.716496064e-15
-1.083119053e-14
1.821806248e-11
3.8280389e-11
3.217159754e-11
3.241419928e-11
3.309757971e-11
3.342353085e-11
3.439292241e-11
3.420253038e-11
3.601844717e-11
3.770472815e-11
3.77588841e-11
4.10813518e-11
4.155927808e-11
4.341141166e-11
4.412897803e-11
2.681261217e-11
2.016821833e-10
-0
0
0
0
0
0
0
0
0
0
0
0
0
0
0
0
7.898104138e-11
1.964236403e-11
2.012976761e-11
1.928831949e-11
1.789786541e-11
1.623392376e-11
1.548961789e-11
1.387103185e-11
1.313535708e-11
1.180024361e-11
1.06656764e-11
1.004770621e-11
9.122316372e-12
8.205134542e-12
7.595880074e-12
6.656739698e-12
6.133627043e-12
5.579205477e-12
4.923960759e-12
4.702640612e-12
4.023448809e-12
4.051637405e-12
3.695514418e-12
3.284156591e-12
3.154021e-12
2.788603181e-12
2.543185221e-12
2.323979219e-12
1.99499635e-12
1.774349186e-12
1.468830811e-12
1.262314966e-12
9.152772484e-13
7.604356486e-13
4.729265085e-13
3.785581744e-13
1.345215486e-13
7.168623191e-14
-1.347453254e-15
-1.980465406e-14
-5.916473374e-14
-4.332476214e-14
2.072548309e-11
4.109209837e-11
3.613496709e-11
3.559840006e-11
3.722934043e-11
3.665545657e-11
3.782387124e-11
3.920721736e-11
4.106408959e-11
4.061899535e-11
4.432055472e-11
4.377493349e-11
4.71481724e-11
4.800654425e-11
5.062092286e-11
5.247711814e-11
1.935181735e-10
-0
0
0
0
0
0
0
0
0
0
0
0
0
0
0
0
5.65225678e-11
2.339537155e-11
2.23163142e-11
2.017106152e-11
1.866349519e-11
1.731704282e-11
1.557863674e-11
1.457268991e-11
1.327074696e-11
1.202549853e-11
1.095405685e-11
9.958602747e-12
8.921177779e-12
8.162909822e-12
7.111565082e-12
6.506837713e-12
5.810214463e-12
4.958992891e-12
4.563083261e-12
4.02050831e-12
3.703272893e-12
3.348704775e-12
2.844710651e-12
2.83177986e-12
2.369566208e-12
2.307397925e-12
2.060128931e-12
1.837571236e-12
1.617835045e-12
1.367683728e-12
1.137752308e-12
9.529834627e-13
6.229825256e-13
4.900313806e-13
2.732832862e-13
1.039269391e-13
-3.059593168e-14
-5.611573443e-14
-1.21468622e-13
-1.361136027e-13
-9.443865688e-14
-5.415595267e-14
2.272383774e-11
4.528740771e-11
3.898035469e-11
4.012719161e-11
3.944990372e-11
4.132606901e-11
4.194056983e-11
4.241121891e-11
4.386869099e-11
4.617031898e-11
4.614154863e-11
4.991351073e-11
5.053156554e-11
5.439153107e-11
5.293744374e-11
4.589716989e-11
3.612472823e-11
3.984876232e-10
0
0
0
0
0
0
0
0
0
0
0
0
-0
-0
1.106622737e-10
2.57403243e-11
2.59786105e-11
2.382997307e-11
2.187697403e-11
1.973646e-11
1.826172572e-11
1.625457072e-11
1.482214577e-11
1.340325981e-11
1.236211162e-11
1.089727772e-11
9.93600956e-12
8.980410852e-12
7.606034315e-12
6.900229938e-12
6.211983937e-12
5.297150275e-12
4.753517591e-12
4.078493258e-12
3.537081814e-12
3.146164685e-12
2.737847841e-12
2.772456879e-12
2.135394599e-12
2.20023366e-12
1.830254365e-12
1.71368685e-12
1.414715846e-12
1.222991081e-12
9.44077347e-13
8.265393616e-13
4.536050238e-13
4.32388874e-13
1.76821962e-13
8.122533492e-14
-6.046599379e-14
-1.449584029e-13
-2.111587994e-13
-1.878681699e-13
-1.816244024e-13
-1.399454901e-13
-7.040273847e-14
2.544246657e-11
4.804047633e-11
4.180001821e-11
4.197509425e-11
4.287019061e-11
4.35574635e-11
4.39775106e-11
4.535053324e-11
4.682865228e-11
4.834197268e-11
5.008004028e-11
5.271743518e-11
5.370781216e-11
5.807413585e-11
5.96135188e-11
5.040565295e-11
3.744613347e-11
3.939033218e-11
2.261511967e-10
4.379943906e-10
-0
0
0
0
0
0
0
0
-0
0
1.705208482e-10
8.220602836e-11
3.102594529e-11
3.08905554e-11
2.793228649e-11
2.535310924e-11
2.253293801e-11
2.073089868e-11
1.81950462e-11
1.702595457e-11
1.515080471e-11
1.383786133e-11
1.213465662e-11
1.111415539e-11
9.463921967e-12
8.625604743e-12
7.619573304e-12
6.571232526e-12
5.862254949e-12
4.755315738e-12
4.247603682e-12
3.724406408e-12
3.260124887e-12
2.692735509e-12
2.511154408e-12
1.945764146e-12
2.01178258e-12
1.585891495e-12
1.419065775e-12
1.287703213e-12
1.076627214e-12
8.522158412e-13
7.692472293e-13
4.75022804e-13
3.768757171e-13
1.469515694e-13
1.340346607e-14
-9.59271688e-14
-2.725865043e-13
-2.593241795e-13
-3.140770905e-13
-2.831274792e-13
-2.389588441e-13
-1.474218476e-13
-8.664952427e-14
2.672054705e-11
5.026493209e-11
4.470074643e-11
4.411103888e-11
4.478020337e-11
4.485974492e-11
4.695727266e-11
4.688907001e-11
5.030309511e-11
5.090151839e-11
5.173416616e-11
5.573121394e-11
5.797800903e-11
6.068242192e-11
6.801581486e-11
7.066674874e-11
5.57278292e-11
6.004812032e-11
8.952791316e-11
2.722690521e-11
1.548697779e-10
4.066259089e-10
-0
0
-0
0
-0
0
2.0394861e-10
1.180626846e-10
3.99345995e-11
3.835730738e-11
3.57036657e-11
3.267093235e-11
2.925910733e-11
2.613295496e-11
2.381101849e-11
2.13929552e-11
1.913939062e-11
1.730993485e-11
1.534745851e-11
1.387644745e-11
1.262899893e-11
1.068767726e-11
9.984242206e-12
8.77470285e-12
7.486129651e-12
6.461482103e-12
5.654135315e-12
4.99740977e-12
4.054525018e-12
3.619310012e-12
3.000726335e-12
2.555854223e-12
2.233499377e-12
1.899943133e-12
1.411989538e-12
1.478510395e-12
1.201281102e-12
9.217353722e-13
8.241356624e-13
6.263368628e-13
4.341228958e-13
3.161300851e-13
1.601362168e-13
1.858107131e-14
-8.40547719e-14
-3.020602469e-13
-3.110566004e-13
-3.609340213e-13
-3.712141988e-13
-3.379709586e-13
-2.760990057e-13
-1.822529688e-13
-1.028963101e-13
2.855643384e-11
5.183735864e-11
4.570457778e-11
4.512815536e-11
4.690548603e-11
4.723287569e-11
4.959009815e-11
4.965356216e-11
5.092605781e-11
5.353231303e-11
5.444737939e-11
5.593666809e-11
5.813641519e-11
5.97820792e-11
6.408206185e-11
7.220003915e-11
6.492215606e-11
4.610363946e-11
8.196706522e-11
8.037961885e-11
5.806195076e-11
3.739130057e-11
1.753691598e-10
1.78725475e-10
1.667920416e-10
1.617299832e-10
1.481937028e-10
1.391564282e-10
5.025198543e-11
4.783595299e-11
4.540841242e-11
4.13074529e-11
3.733849852e-11
3.358616795e-11
3.022376024e-11
2.697575698e-11
2.428217528e-11
2.206584292e-11
1.931302815e-11
1.766702566e-11
1.604590106e-11
1.390183305e-11
1.241762147e-11
1.12401526e-11
9.844536772e-12
8.385795415e-12
7.254612954e-12
6.250020032e-12
5.510452803e-12
4.422679722e-12
3.905024972e-12
3.219105984e-12
2.716407584e-12
2.294879649e-12
1.827250402e-12
1.672720833e-12
1.356125346e-12
1.099291798e-12
1.004114298e-12
7.468259245e-13
6.267546675e-13
5.657419577e-13
2.6298559e-13
1.734748967e-13
-8.201532959e-14
-1.913876127e-13
-2.995187118e-13
-3.590542306e-13
-4.043200989e-13
-4.244043086e-13
-4.35183852e-13
-3.767054881e-13
-2.720964762e-13
-1.996245467e-13
-9.206511954e-14
2.903300623e-11
5.307054891e-11
4.768281435e-11
4.639781629e-11
4.808980902e-11
4.772480636e-11
4.916163148e-11
5.094670476e-11
5.19826066e-11
5.410365833e-11
5.570024351e-11
5.813793833e-11
5.995842453e-11
6.131063097e-11
6.362850574e-11
7.047077189e-11
7.671495323e-11
6.12419206e-11
7.469019755e-11
7.492476052e-11
8.008582281e-11
8.369836333e-11
7.545718123e-11
7.345273403e-11
7.087122977e-11
6.730573724e-11
6.338040379e-11
5.796819326e-11
5.590146672e-11
5.166173258e-11
4.735802671e-11
4.216311695e-11
3.836576925e-11
3.3953413e-11
3.09186488e-11
2.724958301e-11
2.494253943e-11
2.193045303e-11
2.009338158e-11
1.789363447e-11
1.578341393e-11
1.429285595e-11
1.266047707e-11
1.115401078e-11
9.762329728e-12
8.640032227e-12
7.212240152e-12
6.368147703e-12
5.603216027e-12
4.402381817e-12
3.728362331e-12
3.174956189e-12
2.582657189e-12
2.259292207e-12
1.813087351e-12
1.514267074e-12
1.197023724e-12
1.131912298e-12
8.807997655e-13
7.735852586e-13
4.809864374e-13
2.930496801e-13
2.396328187e-13
1.593541552e-15
-5.575709668e-14
-2.415365736e-13
-2.633210898e-13
-4.573717118e-13
-4.264848208e-13
-4.670367512e-13
-4.414915794e-13
-3.806184821e-13
-2.654823367e-13
-1.758723777e-13
-9.206511954e-14
2.989408587e-11
2.413189251e-11
2.34603587e-11
2.449473739e-11
2.364448894e-11
2.51716868e-11
2.589196097e-11
2.601110407e-11
2.744623681e-11
2.783615967e-11
2.92983704e-11
3.024068397e-11
3.131838743e-11
3.245024684e-11
3.385830161e-11
3.762214032e-11
4.353055476e-11
3.765463389e-11
4.307564475e-11
3.679355425e-11
3.664191758e-11
3.869442818e-11
3.922515652e-11
3.794707604e-11
3.544507102e-11
3.321926137e-11
3.182745339e-11
2.828023849e-11
2.55128693e-11
2.350368346e-11
2.103417202e-11
1.893292105e-11
1.706995628e-11
1.530447222e-11
1.349024781e-11
1.230964804e-11
1.100990518e-11
9.867214577e-12
8.865329452e-12
7.782210399e-12
6.99153349e-12
6.406649201e-12
5.426426458e-12
4.911944907e-12
4.245826689e-12
3.590539662e-12
3.14646085e-12
2.73487561e-12
1.992939058e-12
1.895458344e-12
1.527197865e-12
1.164352982e-12
1.12102822e-12
8.448328617e-13
7.148585753e-13
5.794686936e-13
4.549100024e-13
3.03273335e-13
3.303513113e-13
2.599485728e-13
1.570522627e-13
4.87403574e-14
-5.415595267e-15
-1.62467858e-14
-1.137275006e-13
-1.62467858e-13
-1.895458344e-13
-2.491173823e-13
-2.653641681e-13
-2.166238107e-13
-1.949614296e-13
-1.408054769e-13
-1.137275006e-13
-3.24935716e-14
-5.415595267e-15
3.720761404e-13
-3.586132622e-10
-2.743423201e-10
-2.473751694e-10
-2.319625478e-10
-2.159234942e-10
-2.0415347e-10
-1.929000689e-10
-8.668841784e-10
-0
-3.021544559e-10
-3.793168027e-10
-3.168958941e-10
-2.818374e-10
-2.604907221e-10
-2.373906163e-10
-2.180556785e-10
-2.022116506e-10
-7.319795829e-10
-0
-1.894010764e-10
-2.949746044e-10
-2.402353935e-10
-2.200392931e-10
-2.032254795e-10
-1.921844437e-10
-1.807180351e-10
-1.691941885e-10
-6.880331052e-10
0
-1.782960377e-10
-2.665359914e-10
-2.172282748e-10
-1.948108538e-10
-1.803263473e-10
-1.63358443e-10
-1.555859099e-10
-1.629525895e-10
-5.306574045e-10
-0
-1.603362106e-10
-2.400311476e-10
-1.937212779e-10
-1.773056552e-10
-1.526338316e-10
-1.140627634e-10
-5.671165907e-11
3.862881182e-12
-1.501599803e-09
-0
-1.44508665e-10
-2.132964153e-10
-1.738928547e-10
-1.648193446e-10
-1.706815579e-10
-1.87230505e-10
-1.841326218e-10
-1.12155707e-10
-1.02474808e-09
-0
-1.253896753e-10
-1.78988867e-10
-1.502961328e-10
-1.142771833e-10
-6.202381722e-11
1.591470391e-11
9.101648969e-11
9.774106221e-11
-1.214415026e-09
-0
-1.139411777e-10
-1.278182825e-10
-1.209700604e-10
-1.385554521e-10
-1.637526284e-10
-1.72568146e-10
-8.646725663e-11
1.442481215e-10
4.014535464e-10
-0
-1.103921445e-10
-1.603002459e-10
-1.140230622e-10
-9.760034149e-11
-7.260872154e-11
-8.401766907e-11
-1.9470509e-10
-4.185635271e-10
-5.863958957e-10
-0
-2.989489123e-11
-9.975830249e-11
-7.225134927e-11
-9.317835945e-11
-1.197185048e-10
-8.467154647e-11
9.861975612e-13
-2.641499278e-11
-5.905250328e-10
-0
-5.499572379e-11
-4.409811908e-11
-2.303276116e-11
3.538804212e-11
5.242544702e-11
3.295984021e-11
1.494142327e-11
4.665954083e-12
-9.301684412e-10
-0
-8.906931645e-11
-3.196133214e-11
-7.164893409e-11
-7.466815941e-11
-4.619288871e-11
-6.610808547e-12
4.375323792e-11
1.494579297e-10
-3.840438229e-10
-0
-5.73712863e-11
-6.357783063e-11
-3.757403391e-11
-4.473145946e-11
-3.766229209e-11
-2.772882289e-11
-1.672824348e-11
5.485799774e-11
-9.730314036e-11
-0
4.24023748e-11
-3.563279424e-12
3.928514812e-12
-6.974063259e-12
-1.621973888e-11
-1.203023057e-11
-2.062531428e-12
2.729938872e-11
-1.001681547e-10
-0
2.761950123e-12
1.860748542e-11
1.604730995e-11
2.348036117e-11
1.486180707e-11
1.063935627e-11
1.171772328e-11
3.358165306e-11
6.515835157e-12
-0
-1.44107965e-11
2.67279754e-11
1.681314584e-11
1.76574749e-11
1.928959228e-11
1.845263321e-11
1.349393907e-11
2.733242573e-11
8.238260612e-11
-0
7.513076475e-13
3.511216143e-11
2.396842541e-11
2.642530294e-11
2.472712125e-11
2.34204362e-11
2.252347823e-11
2.637941172e-11
8.488644254e-11
-0
2.700056523e-11
4.711033687e-11
3.807390687e-11
3.706303212e-11
3.274123801e-11
3.295429579e-11
3.043691705e-11
2.979755258e-11
1.193471533e-10
-0
3.201464844e-11
5.833432648e-11
4.686980507e-11
4.428377457e-11
3.794373967e-11
3.816591666e-11
3.463753426e-11
3.493747067e-11
1.473188711e-10
-0
3.403781154e-11
6.873458271e-11
5.616560435e-11
4.959680283e-11
4.693503219e-11
4.457774507e-11
4.032983296e-11
4.010662428e-11
1.706760101e-10
-0
4.060638648e-11