/*--------------------------------*- C++ -*----------------------------------*\
| =========                 |                                                 |
| \\      /  F ield         | OpenFOAM Extend Project: Open source CFD        |
|  \\    /   O peration     | Version:  1.6-ext                               |
|   \\  /    A nd           | Web:      www.extend-project.de                 |
|    \\/     M anipulation  |                                                 |
\*---------------------------------------------------------------------------*/
FoamFile
{
    version     2.0;
    format      ascii;
    class       surfaceScalarField;
    location    "0";
    object      phi;
}
// * * * * * * * * * * * * * * * * * * * * * * * * * * * * * * * * * * * * * //

dimensions      [0 3 -1 0 0 0 0];

internalField   nonuniform List<scalar> 
5170
(
0.002007579011
-5.579010883e-06
0.00201347167
-5.892659095e-06
0.002020006835
-6.535164535e-06
0.002027543978
-7.537143338e-06
0.002036488888
-8.944909892e-06
0.002047309539
-1.082065109e-05
0.002060551783
-1.324224388e-05
0.002076854464
-1.630268179e-05
0.002096964448
-2.010998348e-05
0.002121755496
-2.479104765e-05
0.002152264409
-3.050891334e-05
0.002189778303
-3.751389405e-05
0.002236039981
-4.626167819e-05
0.002293660691
-5.762070985e-05
0.0023667336
-7.307290874e-05
0.002461151356
-9.441775574e-05
0.002582975945
-0.0001218245896
0.002732731914
-0.0001497559685
0.002900846213
-0.0001681142998
0.003086820946
-0.000185974733
0.003274538315
-0.0001877173687
0.00348749285
-0.0002129545351
0.003666111192
-0.0001786183414
0.00386360694
-0.0001974957488
0.003860920786
2.686154414e-06
0.003863616016
-2.695230244e-06
0.0036661317
0.0001974843166
0.003487526751
0.000178604949
0.003274589661
0.0002129370897
0.00308689382
0.0001876958404
0.002900945851
0.0001859479699
0.002732865111
0.0001680807394
0.002583151322
0.0001497137891
0.002461378632
0.0001217726898
0.002367025443
9.435318897e-05
0.002294034254
7.299118942e-05
0.002236517968
5.751628583e-05
0.002190390094
4.612787365e-05
0.002153047575
3.734251927e-05
0.002122757858
3.028971669e-05
0.002098246798
2.451106047e-05
0.002078494068
1.975273001e-05
0.002062646861
1.584720725e-05
0.002049984959
1.266190185e-05
0.00203990338
1.008157902e-05
0.002031899269
8.004110399e-06
0.002025559193
6.340076627e-06
0.002020546457
5.012735778e-06
0.002016588994
3.957463466e-06
0.002013468307
3.120686383e-06
0.002011009773
2.45853433e-06
0.002009074352
1.935420577e-06
0.002007551667
1.522685362e-06
0.002006354293
1.19737391e-06
0.002005413114
9.411791022e-07
0.002004673566
7.395484044e-07
0.002004092621
5.809441177e-07
0.002003636384
4.562371154e-07
0.00200327817
3.582141155e-07
0.002002996987
2.811831671e-07
0.002002776329
2.206579462e-07
0.002002603225
1.73103813e-07
0.002002467488
1.357368294e-07
0.002002361122
1.063669152e-07
0.002002277852
8.326955325e-08
0.002002212766
6.508595315e-08
0.00200216202
5.074620364e-08
0.002002122615
3.940500698e-08
0.002002092221
3.039387696e-08
0.00200206904
2.318085529e-08
0.002002051701
1.733929498e-08
0.002002039177
1.252408671e-08
0.002002030726
8.45054566e-09
0.002002025848
4.878140988e-09
1.594738185e-09
0.002007243781
-1.082279174e-05
0.002012785038
-1.143391627e-05
0.002018936314
-1.268644075e-05
0.002026040641
-1.46414706e-05
0.002034487573
-1.739184147e-05
0.002044729865
-2.106294293e-05
0.002057300456
-2.581283526e-05
0.00207282881
-3.183103571e-05
0.002092055019
-3.933619271e-05
0.002115840121
-4.857614928e-05
0.00214517451
-5.984330267e-05
0.002181201163
-7.354054703e-05
0.002225315719
-9.037623415e-05
0.002279513346
-0.0001118183368
0.002347316748
-0.000140876311
0.002435505685
-0.0001826066923
0.00255493265
-0.0002412515541
0.00271216841
-0.0003069917292
0.002885370036
-0.0003413159258
0.003084811738
-0.0003854164348
0.003258230345
-0.0003611359757
0.003495503477
-0.0004502276669
0.00370811597
-0.0003912308351
0.003990361545
-0.0004797413229
0.003907823924
8.522377478e-05
0.003990368568
-8.523987373e-05
0.003708133402
0.0004797194824
0.003495534322
0.0003912040289
0.003258277477
0.0004501939348
0.003084878767
0.0003610945504
0.002885462446
0.0003853642907
0.00271229306
0.0003412501254
0.002555097918
0.0003069089309
0.002435719375
0.0002411512334
0.002347590148
0.0001824824161
0.002279862608
0.0001407187288
0.002225762382
0.0001116165122
0.002181772979
9.01172768e-05
0.002145906829
7.32086687e-05
0.002116777848
5.941869824e-05
0.00209325519
4.803371806e-05
0.002074363904
3.864401628e-05
0.002059262611
3.094850055e-05
0.002047236234
2.468827886e-05
0.002037687121
1.963069134e-05
0.002030122754
1.556847732e-05
0.00202414169
1.232114082e-05
0.002019419454
9.734971945e-06
0.00201569545
7.681467934e-06
0.002012761401
6.054734979e-06
0.002010451473
4.768462158e-06
0.00200863401
3.752883741e-06
0.002007204729
2.95196651e-06
0.002006081177
2.320925414e-06
0.002005198257
1.82409905e-06
0.002004504631
1.433175157e-06
0.002003959848
1.125726682e-06
0.002003532065
8.840197534e-07
0.002003196227
6.940522323e-07
0.00200293263
5.447808307e-07
0.002002725785
4.27502357e-07
0.002002563527
3.35362156e-07
0.002002436299
2.629646953e-07
0.002002336603
2.060629697e-07
0.002002258558
1.61314091e-07
0.002002197558
1.260868105e-07
0.002002149997
9.830681406e-08
0.002002113066
7.63361369e-08
0.002002084581
5.887909659e-08
0.002002062856
4.490512909e-08
0.002002046607
3.35889969e-08
0.002002034869
2.426185695e-08
0.002002026948
1.637130288e-08
0.002002022376
9.450073783e-09
3.088879667e-09
0.00200659046
-1.541325148e-05
0.002011446135
-1.628959174e-05
0.002016846825
-1.808713031e-05
0.002023102121
-2.089676658e-05
0.00203056784
-2.485756109e-05
0.002039664111
-3.015921331e-05
0.002050895115
-3.704383983e-05
0.002064869428
-4.58053487e-05
0.002082317302
-5.678406641e-05
0.002104095884
-7.035473153e-05
0.002131163884
-8.691130285e-05
0.002164497364
-0.0001068740261
0.002204936366
-0.0001308152362
0.0022531122
-0.0001599941716
0.002310235495
-0.0001979996052
0.002382096253
-0.0002544674502
0.00248918974
-0.0003483450415
0.002666724405
-0.000484526394
0.002853307334
-0.0005278988555
0.003096664887
-0.000628773987
0.003231625798
-0.0004960968873
0.003378896114
-0.0005974979823
0.003963774699
-0.0009761094203
0.004147408432
-0.0006633750557
0.004094360506
0.000138271701
0.004147412054
-0.0001382914224
0.003963781382
0.000663350155
0.003378925279
0.0009760601311
0.003231664327
0.0005974548875
0.003096719312
0.0004960395649
0.002853384907
0.0006286986964
0.002666833163
0.0005278018693
0.002489336781
0.0004844053121
0.002382283981
0.0003482040334
0.002310472935
0.0002542934621
0.002253414073
0.0001977775907
0.002205322124
0.0001597084616
0.002164991608
0.0001304477924
0.002131797626
0.000106402651
0.002104908342
8.630798231e-05
0.002083358214
6.958384603e-05
0.002066201976
5.580025381e-05
0.00205259963
4.455084722e-05
0.002041842771
3.544513807e-05
0.002033350642
2.812281969e-05
0.002026654457
2.226466238e-05
0.002021379102
1.759649582e-05
0.002017225972
1.388810204e-05
0.002013958146
1.094929361e-05
0.002011388071
8.62481031e-06
0.002009367518
6.789015657e-06
0.002007779486
5.340915639e-06
0.002006531718
4.199734122e-06
0.002005551527
3.301116175e-06
0.002004781683
2.593943671e-06
0.002004177149
2.037709128e-06
0.002003702503
1.600371969e-06
0.002003329896
1.256626751e-06
0.002003037437
9.865115818e-07
0.002002807926
7.742918709e-07
0.002002627854
6.075746921e-07
0.002002486611
4.766043949e-07
0.002002375872
3.737039906e-07
0.002002289103
2.928326207e-07
0.00200222118
2.292364263e-07
0.002002168093
1.791738101e-07
0.002002126705
1.396953098e-07
0.002002094567
1.084734459e-07
0.00200206978
8.366657091e-08
0.002002050875
6.380956914e-08
0.002002036735
4.77292832e-08
0.002002026522
3.447517012e-08
0.00200201963
2.326286939e-08
0.002002015652
1.342840408e-08
4.389420403e-09
0.0020056533
-1.906655101e-05
0.002009523885
-2.016017683e-05
0.002013842443
-2.240568873e-05
0.002018867411
-2.592173463e-05
0.002024901273
-3.089142273e-05
0.002032309903
-3.756784354e-05
0.002041545999
-4.627993629e-05
0.002053176969
-5.74363179e-05
0.002067915009
-7.152210633e-05
0.002086639058
-8.907878073e-05
0.002110376621
-0.0001106488657
0.002140161744
-0.0001366591492
0.002176582276
-0.0001672357684
0.002218715735
-0.0002021276312
0.002262549512
-0.0002418333816
0.002302776168
-0.0002946941062
0.002359017428
-0.0004045863017
0.002568905474
-0.00069441444
0.002821937191
-0.0007809305725
0.003104975921
-0.0009118127171
0.003560529289
-0.0009516502558
0.00362472831
-0.0006616970026
0
-0
0
-0
0
0
0
-0
0
0
0.003624750255
0
0.003560546695
0.0006616584476
0.003105007538
0.0009515787226
0.002821989547
0.0009117166868
0.002568996394
0.0007807950227
0.002359143011
0.0006942586947
0.002302927172
0.0004044198721
0.002262734763
0.0002944858711
0.002218949351
0.0002415630027
0.002176880955
0.0002017768579
0.002140545484
0.0001667832633
0.002110870132
0.0001360780037
0.002087273393
0.0001099047211
0.002068729482
8.812775655e-05
0.002054221509
7.030822748e-05
0.002042884105
5.58882504e-05
0.002034022399
4.430684424e-05
0.002027091085
3.50541343e-05
0.00202166565
2.769009719e-05
0.002017416165
2.184598016e-05
0.002014085997
1.721827021e-05
0.002011475206
1.356008468e-05
0.002009427772
1.067224484e-05
0.002007821775
8.395012546e-06
0.002006561838
6.600851955e-06
0.002005573285
5.188287887e-06
0.002004797604
4.076796566e-06
0.002004188933
3.202614753e-06
0.002003711307
2.515335307e-06
0.002003336516
1.975162997e-06
0.002003042429
1.550713946e-06
0.002002811683
1.217257852e-06
0.002002630653
9.553210977e-07
0.002002488652
7.495764154e-07
0.00200237729
5.879655488e-07
0.002002289991
4.610030668e-07
0.002002221596
3.612277701e-07
0.002002168062
2.827709365e-07
0.002002126223
2.210123237e-07
0.002002093606
1.723124533e-07
0.00200206828
1.337992823e-07
0.002002048747
1.03199425e-07
0.002002033851
7.870591566e-08
0.002002022709
5.887136782e-08
0.002002014661
4.252280503e-08
0.002002009231
2.869301462e-08
0.002002006096
1.656309705e-08
5.414185289e-09
0.002004483316
-2.154986675e-05
0.002007121491
-2.279835206e-05
0.002010080537
-2.536473458e-05
0.002013549922
-2.939111967e-05
0.002017757371
-3.509887222e-05
0.002022987923
-4.279839565e-05
0.002029609685
-5.290169811e-05
0.002038109636
-6.593626871e-05
0.00204914338
-8.255585024e-05
0.002063600622
-0.0001035360233
0.002082674799
-0.0001297230426
0.002107872127
-0.0001618564767
0.002140706208
-0.0002000698497
0.002181172729
-0.0002425941518
0.002221998151
-0.0002826588038
0.002231144972
-0.0003038409277
0.00213332542
-0.000306766749
0.002199470647
-0.0007605596671
0.003137122819
-0.001718582745
0.003029068997
-0.0008037588945
0
-0
0
-0
0
-0
0
-0
0
-0
0
0
0
0
0
0
0
0
0.003029051396
0
0.003137121301
0.0008036467823
0.002199570417
0.001718345907
0.002133432362
0.0007603967499
0.002231246888
0.0003066053452
0.00222211556
0.0003036171999
0.002181320353
0.0002823582095
0.002140896687
0.0002422005238
0.002108119219
0.0001995607313
0.002082995155
0.0001612020678
0.002064015092
0.0001288847844
0.002049678348
0.0001024645001
0.002038798621
8.118795425e-05
0.002030495348
6.419152331e-05
0.00202412463
5.067756238e-05
0.002019214467
3.99642978e-05
0.00201541593
3.148863433e-05
0.00201246856
2.479335007e-05
0.002010176168
1.951066225e-05
0.002008389817
1.534643558e-05
0.002006995706
1.206635607e-05
0.002005906414
9.484303977e-06
0.002005054496
7.452770075e-06
0.002004387734
5.855049447e-06
0.002003865589
4.598942186e-06
0.002003456512
3.611691482e-06
0.002003135912
2.835935362e-06
0.002002884591
2.22648425e-06
0.002002687545
1.747760282e-06
0.002002533036
1.371765886e-06
0.00200241188
1.076477186e-06
0.002002316882
8.445751089e-07
0.002002242405
6.624421535e-07
0.002002184036
5.193723716e-07
0.002002138314
4.069490928e-07
0.002002102533
3.185523904e-07
0.002002074573
2.489727088e-07
0.002002052777
1.94107786e-07
0.002002035856
1.507210545e-07
0.002002022805
1.162503556e-07
0.002002012852
8.865871477e-08
0.002002005408
6.631538727e-08
0.002002000031
4.789923404e-08
0.002001996404
3.232052353e-08
0.00200199431
1.865677087e-08
6.098508606e-09
0.002003147118
-2.269698514e-05
0.002004374544
-2.402577794e-05
0.00200577019
-2.676037981e-05
0.002007438291
-3.105922143e-05
0.002009510623
-3.717120369e-05
0.002012162177
-4.544995012e-05
0.002015634548
-5.63740693e-05
0.002020272636
-7.057435679e-05
0.002026584991
-8.886820449e-05
0.002035346828
-0.0001122978609
0.002047780298
-0.0001421565119
0.002065873919
-0.0001799500984
0.002092960819
-0.0002271567494
0.002134796875
-0.0002844302075
0.002200784442
-0.000348646371
0.002290259966
-0.000393316452
0.002176219678
-0.0001927264607
0.0008876177105
0.0005280423003
0
-0
0
-0
0
-0
0
-0
0
-0
0
-0
0
-0
0
0
0
0
0
0
0
0
0
0
0
0
0.0008878176976
0
0.002176275918
-0.0005280614702
0.00229028782
0.0001925934426
0.002200819243
0.000393085777
0.002134845812
0.0003483316406
0.00209302888
0.0002840174557
0.002065966885
0.0002266227264
0.00204790546
0.0001792634925
0.002035513453
0.0001412767913
0.002026804847
0.0001111731067
0.002020560694
8.74321068e-05
0.0020160099
6.874231782e-05
0.002012649228
5.40382344e-05
0.002010140643
4.247288301e-05
0.002008251436
3.337784058e-05
0.002006818147
2.622663889e-05
0.002005724029
2.060478082e-05
0.002004884517
1.618594759e-05
0.00200423761
1.271326342e-05
0.002003737362
9.984551665e-06
0.002003349409
7.840722549e-06
0.002003047838
6.156621259e-06
0.002002812968
4.833811538e-06
0.00200262977
3.794889561e-06
0.002002486703
2.979002717e-06
0.002002374868
2.338318896e-06
0.002002287383
1.835245281e-06
0.002002218908
1.440240816e-06
0.002002165291
1.130094211e-06
0.002002123298
8.86568207e-07
0.002002090407
6.953336777e-07
0.002002064647
5.451321232e-07
0.002002044481
4.271151381e-07
0.002002028707
3.343265917e-07
0.002002016384
2.612950919e-07
0.002002006781
2.037110007e-07
0.002001999327
1.581751599e-07
0.00200199358
1.219976269e-07
0.002001989197
9.304083901e-08
0.00200198592
6.959317873e-08
0.002001983552
5.026663423e-08
0.002001981955
3.391767599e-08
0.002001981033
1.957850352e-08
6.399660416e-09
0.002001724419
-2.242140444e-05
0.002001446285
-2.374764397e-05
0.002001165867
-2.647996133e-05
0.002000889877
-3.078323136e-05
0.0020006369
-3.691822685e-05
0.002000446133
-4.525918281e-05
0.002000392021
-5.631995732e-05
0.002000609772
-7.079210818e-05
0.002001342126
-8.960055836e-05
0.002003029532
-0.0001139852674
0.002006486901
-0.0001456138806
0.002013224734
-0.0001866879315
0.002025881894
-0.0002398139095
0.002048396407
-0.0003069447205
0.002087725762
-0.0003879757257
0.002202603708
-0.0005081943976
0.003086908573
-0.001077031326
0
-0
0
-0
0
-0
0
-0
0
-0
0
-0
0
0
0
0
0
0
0
0
0
0
0
0
0
0
0
0
0
0
0.003086770725
0
0.002202552333
0.001076811835
0.002087676653
0.0005079614563
0.002048342981
0.0003876653129
0.002025821937
0.0003065384995
0.002013156059
0.000239288604
0.002006407152
0.0001860124002
0.002002935881
0.0001447480623
0.002001230997
0.0001128779901
0.002000476617
8.81864868e-05
0.002000231088
6.898784688e-05
0.002000250212
5.401911047e-05
0.002000397025
4.232606997e-05
0.002000594994
3.317987162e-05
0.002000802494
2.601913913e-05
0.002000998207
2.040906836e-05
0.002001172509
1.601164528e-05
0.002001322333
1.256343923e-05
0.002001448106
9.858778533e-06
0.002001551955
7.736873629e-06
0.00200163668
6.071896002e-06
0.002001705192
4.765299527e-06
0.002001760224
3.739858284e-06
0.002001804201
2.935025636e-06
0.002001839205
2.303314319e-06
0.002001866982
1.807468743e-06
0.002001888969
1.418253893e-06
0.002001906339
1.112724308e-06
0.002001920039
8.728679662e-07
0.002001930829
6.845431967e-07
0.002001939317
5.366440625e-07
0.002001945986
4.204469575e-07
0.002001951216
3.290962227e-07
0.002001955311
2.57200239e-07
0.002001958507
2.005146122e-07
0.002001960992
1.556906667e-07
0.00200196291
1.20079761e-07
0.002001964373
9.157745153e-08
0.002001965468
6.849778724e-08
0.00200196626
4.947535601e-08
0.002001966794
3.338382266e-08
0.002001967102
1.927019596e-08
6.298928446e-09
0.002000303946
-2.072535026e-05
0.001998519338
-2.196303652e-05
0.0019965548
-2.451542284e-05
0.001994313596
-2.854202778e-05
0.001991691774
-3.429640469e-05
0.001988577525
-4.214493412e-05
0.001984852721
-5.259515285e-05
0.001980398589
-6.633797578e-05
0.001975111258
-8.431322828e-05
0.001968947712
-0.0001078217208
0.001962079462
-0.0001387456306
0.001955428417
-0.0001800368863
0.001952409234
-0.0002367947262
0.001963268927
-0.0003178044142
0.002005110697
-0.0004298174958
0.001990542316
-0.0004936260157
0.001827955322
-0.0009144443319
0
-0
0
-0
0
-0
0
-0
0
0
0
0
0
0
0
0
0
0
0
0
0
0
0
0
0
0
0
0
0
0
0.001827873103
0
0.001990433485
0.0009142514533
0.002004976301
0.0004934186403
0.001963114571
0.0004295270427
0.00195222353
0.0003174295407
0.001955200667
0.0002363114665
0.001961797881
0.0001794151868
0.001968597648
0.0001379482949
0.00197467403
0.0001068016077
0.001979850369
8.301014848e-05
0.001984163192
6.467502388e-05
0.001987708178
5.047412376e-05
0.001990593757
3.944049125e-05
0.001992925005
3.084862385e-05
0.001994797293
2.414685141e-05
0.001996293934
1.891242729e-05
0.001997485842
1.481973651e-05
0.001998432255
1.161702662e-05
0.001999181964
9.109069626e-06
0.001999774735
7.144102716e-06
0.002000242715
5.603916319e-06
0.002000611728
4.396285959e-06
0.002000902421
3.449165337e-06
0.002001131235
2.70621131e-06
0.002001311226
2.123323447e-06
0.002001452735
1.665960177e-06
0.002001563937
1.307051895e-06
0.002001651286
1.025375069e-06
0.002001719871
8.042832849e-07
0.002001773698
6.307158131e-07
0.002001815921
4.944214705e-07
0.002001849017
3.873512136e-07
0.002001874931
3.031816577e-07
0.00200189519
2.369412731e-07
0.002001910988
1.847168149e-07
0.002001923256
1.434220174e-07
0.00200193272
1.106162716e-07
0.002001939938
8.435946271e-08
0.002001945337
6.309850083e-08
0.002001949238
4.557502131e-08
0.002001951869
3.07519374e-08
0.002001953388
1.775146107e-08
5.802532085e-09
0.001998977884
-1.770323441e-05
0.001995784172
-1.876932429e-05
0.001992238483
-2.096973401e-05
0.001988142595
-2.444613973e-05
0.001983270821
-2.942463022e-05
0.001977359441
-3.623355428e-05
0.00197009441
-4.533012259e-05
0.001961095153
-5.733871868e-05
0.00194988793
-7.310600507e-05
0.001935850248
-9.378403906e-05
0.001918079827
-0.0001209752091
0.001895108322
-0.0001570653815
0.001864588753
-0.0002062751568
0.001825634495
-0.0002788501562
0.001806314063
-0.0004104970647
0.00207591683
-0.0007632287827
0
-0
0
-0
0
-0
0
-0
0
0
0
0
0
0
0
0
0
0
0
0
0
0
0
0
0
0
0
0
0
0
0
0
0
0
0.0020756793
0
0.001806114438
0.000762983502
0.001825394068
0.000410247413
0.001864288735
0.0002785348735
0.001894734004
0.000205866198
0.001917612033
0.0001565371576
0.001935263691
0.0001202966363
0.001949149988
9.291531077e-05
0.001960164154
7.199598304e-05
0.00196891729
5.592188784e-05
0.001975868696
4.352271717e-05
0.00198138061
3.39285778e-05
0.001985743779
2.648545454e-05
0.00198919235
2.069828055e-05
0.001991914502
1.619027517e-05
0.001994060942
1.26732967e-05
0.001995751938
9.926030596e-06
0.001997083171
7.777836478e-06
0.001998130566
6.096708372e-06
0.001998954242
4.780240098e-06
0.001999601726
3.748801587e-06
0.002000110538
2.940353628e-06
0.002000510263
2.306485809e-06
0.002000824213
1.809374169e-06
0.002001070737
1.419435487e-06
0.002001264277
1.113512711e-06
0.002001416185
8.734667407e-07
0.002001535387
6.850809936e-07
0.002001628895
5.372076135e-07
0.002001702216
4.211011045e-07
0.00200175967
3.298972071e-07
0.002001804646
2.5820489e-07
0.002001839801
2.017867427e-07
0.00200186721
1.573079509e-07
0.002001888493
1.221389966e-07
0.002001904909
9.420039159e-08
0.002001917429
7.183965407e-08
0.002001926794
5.373355666e-08
0.002001933558
3.881088201e-08
0.002001938122
2.618795097e-08
0.002001940756
1.511674244e-08
4.941348759e-09
0.001997835331
-1.353856514e-05
0.001993425408
-1.435940152e-05
0.00198851051
-1.60548363e-05
0.001982801142
-1.873677172e-05
0.001975961017
-2.258450483e-05
0.001967587359
-2.785989634e-05
0.001957187318
-3.493008208e-05
0.001944148484
-4.429988389e-05
0.001927698729
-5.66562504e-05
0.001906841578
-7.29268881e-05
0.001880226591
-9.436022222e-05
0.001845848587
-0.0001226873778
0.00180035829
-0.0001607848592
0.001737760287
-0.0002162521531
0.001647671561
-0.0003204083387
0.001507341416
-0.0006228986376
0
-0
0
-0
0
-0
0
-0
0
0
0
0
0
0
0
0
0
0
0
0
0
0
0
0
0
0
0
0
0
0
0
0
0
0
0.001507159587
0
0.001647424137
0.0006227189526
0.001737440768
0.0003202307813
0.001799957318
0.0002160183239
0.001845347841
0.0001604756752
0.001879599533
0.0001222854651
0.001906053284
9.384288541e-05
0.001926704439
7.226415617e-05
0.001942891188
5.580923378e-05
0.001955594477
4.321859913e-05
0.00196556665
3.355054411e-05
0.001973394909
2.610031857e-05
0.001979539977
2.034038601e-05
0.001984363695
1.587456288e-05
0.001988150196
1.240377439e-05
0.001991122533
9.700959445e-06
0.001993455782
7.59278161e-06
0.001995287354
5.946264372e-06
0.001996725103
4.658959636e-06
0.001997853687
3.651655937e-06
0.001998739563
2.862925612e-06
0.001999434901
2.245015664e-06
0.001999980658
1.76072932e-06
0.002000408986
1.381045598e-06
0.002000745129
1.083292622e-06
0.002001008902
8.497396762e-07
0.00200121586
6.665085876e-07
0.002001378212
5.22728749e-07
0.00200150554
4.098800822e-07
0.00200160536
3.212812245e-07
0.002001683568
2.516895194e-07
0.002001744784
1.969886017e-07
0.002001792627
1.539435614e-07
0.002001829926
1.200089023e-07
0.002001858887
9.317778971e-08
0.002001881224
7.186326614e-08
0.00200189826
5.48043749e-08
0.002001911002
4.099159508e-08
0.002001920205
2.96073877e-08
0.002001926416
1.997753248e-08
0.002001930001
1.153171388e-08
3.76947294e-09
0.001996955391
-8.493955953e-06
0.001991607412
-9.011422599e-06
0.001985633407
-1.008083145e-05
0.001978670736
-1.177410062e-05
0.001970293152
-1.420692043e-05
0.001959982552
-1.754929633e-05
0.001947094145
-2.204167582e-05
0.001930812629
-2.801836714e-05
0.001910095034
-3.593865581e-05
0.001883584573
-4.64164274e-05
0.001849416365
-6.019201445e-05
0.00180450527
-7.777628195e-05
0.001741248862
-9.752845171e-05
0.00163142207
-0.0001064253612
0.001347133197
-3.61194656e-05
0.001167080049
-0.0004428454892
0
-0
0
-0
0
-0
0
0
0
0
0
0
0
0
0
0
0
0
0
0
0
0
0
0
0
0
0
0
0
0
0
0
0
0
0.001166896725
0
0.001346885171
0.0004427305067
0.001631044889
3.607106347e-05
0.001740769999
0.0001062932141
0.001803907473
9.733820065e-05
0.001848667549
7.752538978e-05
0.001882642248
5.986818634e-05
0.001908905058
4.600134558e-05
0.001929306229
3.54080634e-05
0.001945183866
2.734096204e-05
0.001957557064
2.11773462e-05
0.001967210636
1.64467463e-05
0.001974750442
1.280058007e-05
0.001980644871
9.980133357e-06
0.00198525667
7.791975731e-06
0.001988867316
6.090313444e-06
0.001991695648
4.764449193e-06
0.001993912106
3.729807034e-06
0.001995649633
2.9214324e-06
0.001997012062
2.289226781e-06
0.001998080573
1.794415022e-06
0.001998918688
1.406900784e-06
0.001999576147
1.103270161e-06
0.002000091919
8.652738937e-07
0.002000496544
6.786667243e-07
0.002000813969
5.323153587e-07
0.002001062967
4.175099704e-07
0.002001258265
3.274311334e-07
0.002001411409
2.567358166e-07
0.002001531455
2.012351537e-07
0.002001625502
1.576430826e-07
0.002001699111
1.233798077e-07
0.002001756636
9.641819566e-08
0.002001801481
7.516342287e-08
0.002001836301
5.835824294e-08
0.002001863156
4.500845516e-08
0.002001883636
3.432414935e-08
0.002001898954
2.567308659e-08
0.002001910019
1.854309666e-08
0.002001917484
1.251189593e-08
0.002001921794
7.222271612e-09
2.360772606e-09
0.001996400553
-2.894508492e-06
0.00199046042
-3.071289643e-06
0.001983816327
-3.436738986e-06
0.001976057915
-4.015688615e-06
0.001966699183
-4.848188533e-06
0.001955143229
-5.993342084e-06
0.001940636842
-7.535288666e-06
0.001922210584
-9.592109505e-06
0.001898599903
-1.232797466e-05
0.0018681486
-1.596512419e-05
0.00182873279
-2.07762051e-05
0.001777943422
-2.698691313e-05
0.001714859193
-3.444422355e-05
0.001650906041
-4.247220857e-05
0.001672751219
-5.796464324e-05
0
-0
0
-0
0
-0
0
-0
0
0
0
0
0
0
0
0
0
0
0
0
0
0
0
0
0
0
0
0
0
0
0
0
0
0
0
0
0
0
0.001672324897
0
0.001650458287
5.793767356e-05
0.001714325071
4.242642933e-05
0.001777283734
3.437953781e-05
0.001827907572
2.690155196e-05
0.001867109793
2.066596497e-05
0.001897287345
1.582379434e-05
0.001920548103
1.21473046e-05
0.001938527625
9.361440073e-06
0.001952464016
7.240955623e-06
0.001963292895
5.617867686e-06
0.001971724248
4.369227078e-06
0.001978299719
3.404662292e-06
0.001983434621
2.65707367e-06
0.001987448805
2.076128731e-06
0.001990589516
1.62373871e-06
0.001993048451
1.270871867e-06
0.001994974613
9.952707794e-07
0.001996484048
7.797914334e-07
0.001997667285
6.111784965e-07
0.001998595033
4.791518528e-07
0.001999322585
3.757191363e-07
0.001999893204
2.946541391e-07
0.002000340772
2.310987181e-07
0.00200069183
1.812573629e-07
0.002000967179
1.421615365e-07
0.002001183122
1.114875105e-07
0.002001352443
8.741492334e-08
0.002001485162
6.851683966e-08
0.002001589131
5.367398128e-08
0.002001670503
4.200774116e-08
0.002001734093
3.282778145e-08
0.002001783666
2.559098577e-08
0.002001822155
1.986921781e-08
0.002001851839
1.532394967e-08
0.002001874477
1.168626769e-08
0.002001891409
8.740838234e-09
0.002001903639
6.313313477e-09
0.002001911891
4.259882972e-09
0.002001916654
2.458913316e-09
8.037536079e-10
0.001996210983
2.894508412e-06
0.001990068404
3.07128956e-06
0.001983194926
3.436738901e-06
0.001975163549
4.01568853e-06
0.001965467172
4.848188444e-06
0.001953480488
5.993341998e-06
0.001938409911
7.535288578e-06
0.001919225692
9.592109415e-06
0.001894569742
1.232797457e-05
0.001862639494
1.596512408e-05
0.001821087084
2.077620499e-05
0.001767113258
2.6986913e-05
0.001698224811
3.444422342e-05
0.001613280394
4.247220838e-05
0.001497351108
5.796464312e-05
0
0
0
0
0
0
0
0
0
0
0
0
0
0
0
0
0
0
0
0
0
0
0
0
0
0
0
0
0
0
0
0
0
-0
0
-0
0
-0
0.001496945548
-0
0.001612820895
-5.793767362e-05
0.001697673754
-4.242642937e-05
0.00176643283
-3.437953793e-05
0.001820235934
-2.690155205e-05
0.001861567864
-2.066596501e-05
0.001893215453
-1.582379438e-05
0.001917510062
-1.214730464e-05
0.001936232942
-9.361440115e-06
0.001950714853
-7.240955655e-06
0.001961950589
-5.617867718e-06
0.001970689043
-4.369227096e-06
0.001977498367
-3.404662302e-06
0.001982812515
-2.657073674e-06
0.001986964772
-2.076128732e-06
0.00199021225
-1.623738711e-06
0.001992753993
-1.270871869e-06
0.001994744535
-9.952707807e-07
0.001996304118
-7.797914331e-07
0.001997526475
-6.111784946e-07
0.001998484778
-4.791518479e-07
0.001999236217
-3.757191286e-07
0.001999825525
-2.946541291e-07
0.002000287722
-2.310987076e-07
0.002000650237
-1.812573564e-07
0.00200093456
-1.421615343e-07
0.002001157535
-1.114875087e-07
0.002001332365
-8.741492068e-08
0.002001469399
-6.851683567e-08
0.002001576747
-5.36739762e-08
0.002001660762
-4.200773518e-08
0.002001726418
-3.282777488e-08
0.0020017776
-2.559097897e-08
0.002001817338
-1.986921108e-08
0.002001847986
-1.53239433e-08
0.002001871359
-1.168626192e-08
0.00200188884
-8.740833246e-09
0.002001901467
-6.31330943e-09
0.002001909987
-4.259880003e-09
0.002001914904
-2.458911486e-09
-8.037529918e-10
0.001996400553
8.493955878e-06
0.00199046042
9.011422516e-06
0.001983816327
1.008083137e-05
0.001976057915
1.177410054e-05
0.001966699183
1.420692034e-05
0.001955143229
1.754929625e-05
0.001940636842
2.204167574e-05
0.001922210584
2.801836705e-05
0.001898599903
3.593865573e-05
0.0018681486
4.64164273e-05
0.00182873279
6.019201435e-05
0.001777943422
7.777628179e-05
0.001714859193
9.752845162e-05
0.001650906041
0.000106425361
0.001672751218
3.611946548e-05
0
0.0004428454891
0
0
0
0
0
0
0
0
0
0
0
0
0
0
0
0
0
0
0
0
0
0
0
0
0
0
0
0
0
0
0
-0
0
-0
0
-0
0.001672324897
-0.0004427305068
0.001650458287
-3.607106355e-05
0.001714325071
-0.0001062932141
0.001777283734
-9.733820074e-05
0.001827907572
-7.752538987e-05
0.001867109793
-5.986818643e-05
0.001897287345
-4.600134563e-05
0.001920548103
-3.540806345e-05
0.001938527625
-2.734096208e-05
0.001952464016
-2.117734623e-05
0.001963292895
-1.644674633e-05
0.001971724248
-1.280058009e-05
0.001978299719
-9.980133366e-06
0.001983434621
-7.791975727e-06
0.001987448805
-6.090313443e-06
0.001990589516
-4.764449194e-06
0.001993048451
-3.729807037e-06
0.001994974613
-2.921432402e-06
0.001996484048
-2.289226781e-06
0.001997667285
-1.794415021e-06
0.001998595033
-1.406900779e-06
0.001999322585
-1.103270154e-06
0.001999893204
-8.652738818e-07
0.002000340772
-6.786667097e-07
0.00200069183
-5.323153524e-07
0.002000967179
-4.175099723e-07
0.002001183122
-3.274311331e-07
0.002001352443
-2.567358147e-07
0.002001485162
-2.0123515e-07
0.002001589131
-1.576430776e-07
0.002001670503
-1.233798017e-07
0.002001734093
-9.641818913e-08
0.002001783666
-7.516341607e-08
0.002001822155
-5.835823624e-08
0.002001851839
-4.500844885e-08
0.002001874477
-3.432414363e-08
0.002001891409
-2.567308166e-08
0.002001903639
-1.854309267e-08
0.002001911891
-1.251189299e-08
0.002001916654
-7.222269815e-09
-2.360771986e-09
0.001996955391
1.353856507e-05
0.001991607412
1.435940144e-05
0.001985633407
1.605483622e-05
0.001978670736
1.873677165e-05
0.001970293152
2.258450473e-05
0.001959982552
2.785989626e-05
0.001947094145
3.4930082e-05
0.001930812629
4.429988381e-05
0.001910095034
5.665625033e-05
0.001883584573
7.292688803e-05
0.001849416365
9.43602221e-05
0.00180450527
0.0001226873776
0.001741248862
0.0001607848591
0.00163142207
0.0002162521529
0.001347133197
0.0003204083386
0.001167080049
0.0006228986375
0
0
0
0
0
0
0
0
0
0
0
0
0
0
0
0
0
0
0
0
0
0
0
0
0
0
0
0
0
0
0
-0
0
-0
0.001166896725
-0
0.001346885171
-0.0006227189528
0.001631044889
-0.0003202307814
0.001740769999
-0.0002160183239
0.001803907473
-0.0001604756753
0.001848667549
-0.0001222854652
0.001882642248
-9.384288548e-05
0.001908905058
-7.226415621e-05
0.001929306229
-5.580923383e-05
0.001945183866
-4.321859917e-05
0.001957557064
-3.355054414e-05
0.001967210636
-2.610031859e-05
0.001974750442
-2.034038604e-05
0.001980644871
-1.587456288e-05
0.00198525667
-1.240377437e-05
0.001988867316
-9.700959441e-06
0.001991695648
-7.59278161e-06
0.001993912106
-5.946264375e-06
0.001995649633
-4.658959641e-06
0.001997012062
-3.65165594e-06
0.001998080573