/*--------------------------------*- C++ -*----------------------------------*\
| =========                 |                                                 |
| \\      /  F ield         | OpenFOAM Extend Project: Open source CFD        |
|  \\    /   O peration     | Version:  1.6-ext                               |
|   \\  /    A nd           | Web:      www.extend-project.de                 |
|    \\/     M anipulation  |                                                 |
\*---------------------------------------------------------------------------*/
FoamFile
{
    version     2.0;
    format      ascii;
    class       surfaceScalarField;
    location    "0";
    object      phi;
}
// * * * * * * * * * * * * * * * * * * * * * * * * * * * * * * * * * * * * * //

dimensions      [0 3 -1 0 0 0 0];

internalField   nonuniform List<scalar> 
5170
(
0.002008493867
-6.493867472e-06
0.002015353827
-6.85995959e-06
0.002022964527
-7.610699868e-06
0.002031748266
-8.783739017e-06
0.00204218511
-1.043684429e-05
0.002054834379
-1.264926847e-05
0.002070357588
-1.552320928e-05
0.002089542504
-1.918491638e-05
0.002113327183
-2.378467908e-05
0.002142821575
-2.949439156e-05
0.002179322138
-3.650056328e-05
0.002224311554
-4.498941589e-05
0.002279430744
-5.511919016e-05
0.002346404523
-6.697377816e-05
0.002426898639
-8.049411657e-05
0.002522295976
-9.539733718e-05
0.002633430271
-0.0001111342951
0.002760449615
-0.0001270193433
0.002903182656
-0.0001427330417
0.003061689246
-0.0001585065896
0.003227364839
-0.000165675593
0.003392439222
-0.0001650743829
0.003475842122
-8.34029007e-05
0.003570265602
-9.442347967e-05
0.003569675687
5.899153753e-07
0.003570276495
-6.008081608e-07
0.003475865322
9.441117318e-05
0.003392477921
8.338740075e-05
0.00322742416
0.0001650537613
0.003061775199
0.0001656489608
0.002903302007
0.0001584731918
0.002760611402
0.0001426906053
0.002633645086
0.0001269663163
0.002522576997
0.000111068089
0.002427262487
9.531450937e-05
0.00234687226
8.039022673e-05
0.002280029145
6.684311532e-05
0.002225074697
5.495444778e-05
0.002180293418
4.478127887e-05
0.002144056244
3.623717464e-05
0.002114895573
2.916067067e-05
0.002091534122
2.336145149e-05
0.002072886313
1.864780888e-05
0.002058045059
1.48412534e-05
0.002046261928
1.178313132e-05
0.002036925332
9.336595591e-06
0.002029539288
7.386044594e-06
0.002023703992
5.835295888e-06
0.002019098751
4.60524114e-06
0.002015467352
3.631398749e-06
0.002012605766
2.861586384e-06
0.00201035195
2.253815922e-06
0.002008577492
1.774457996e-06
0.00200718081
1.396681853e-06
0.002006081664
1.099146374e-06
0.002005216744
8.649196188e-07
0.00200453615
6.805938599e-07
0.00200400058
5.355703223e-07
0.002003579097
4.214823012e-07
0.002003247366
3.317312091e-07
0.002002986249
2.611177096e-07
0.002002780702
2.055465294e-07
0.002002618908
1.617936121e-07
0.002002491586
1.273219268e-07
0.002002391453
1.001334755e-07
0.002002312798
7.865487729e-08
0.002002251152
6.16465992e-08
0.002002203023
4.812875577e-08
0.002002165698
3.732511106e-08
0.002002137079
2.86181684e-08
0.002002115566
2.151303475e-08
0.002002099959
1.56074287e-08
0.00200208939
1.05687455e-08
0.002002083274
6.116213914e-09
2.001998304e-09
0.002008107624
-1.26014918e-05
0.002014562061
-1.331439643e-05
0.002021728188
-1.47768264e-05
0.002030007628
-1.706317954e-05
0.002039858623
-2.028783931e-05
0.002051817567
-2.460821196e-05
0.002066522525
-3.022816769e-05
0.002084738733
-3.740112406e-05
0.002107385521
-4.643146753e-05
0.002135563195
-5.767206542e-05
0.002170576687
-7.151405495e-05
0.002213949837
-8.836256623e-05
0.002267418902
-0.0001085882552
0.002332885127
-0.0001324400029
0.002412294011
-0.0001599030003
0.002507402181
-0.0001905055079
0.002619426649
-0.0002231587625
0.002748704918
-0.0002562976126
0.002894928324
-0.0002889564476
0.003061747056
-0.0003253253212
0.003239781815
-0.000343710352
0.003427306632
-0.0003525991999
0.003500697585
-0.0001567938544
0.003626490257
-0.000220216151
0.003605498858
2.158131415e-05
0.003626499639
-2.160158929e-05
0.00350071774
0.0002201930724
0.003427340542
0.0001567645983
0.003239835094
0.0003525592095
0.003061825726
0.0003436583288
0.00289503852
0.0003252603982
0.002748855608
0.0002888735176
0.00261962754
0.0002561943843
0.002507665614
0.0002230300143
0.002412635564
0.0001903445597
0.002333324534
0.0001597012563
0.00226798126
0.0001321863899
0.002214667104
0.0001082686035
0.00217148957
8.795881335e-05
0.002136723532
7.100321204e-05
0.002108859312
5.702489055e-05
0.002086609984
4.561077962e-05
0.002068898136
3.635965724e-05
0.002054833536
2.890585291e-05
0.002043687928
2.29287393e-05
0.002034870209
1.815431455e-05
0.002027903603
1.4352651e-05
0.002022405496
1.133340304e-05
0.002018070106
8.94063076e-06
0.002014653876
7.047629328e-06
0.002011963341
5.552120506e-06
0.002009845176
4.371981434e-06
0.002008178079
3.44155468e-06
0.002006866232
2.70852945e-06
0.002005834031
2.131346926e-06
0.002005021886
1.677064608e-06
0.00200438286
1.319619689e-06
0.002003880008
1.03842304e-06
0.002003484262
8.172279648e-07
0.002003172766
6.432270203e-07
0.002002927552
5.06331998e-07
0.002002734499
3.985997816e-07
0.002002582514
3.137782002e-07
0.002002462889
2.469471714e-07
0.002002368788
1.942340785e-07
0.002002294854
1.525889972e-07
0.002002236893
1.196077933e-07
0.00200219163
9.339171062e-08
0.002002156518
7.243666943e-08
0.00200212959
5.554618531e-08
0.002002109343
4.176011497e-08
0.002002094652
3.029911037e-08
0.002002084701
2.051949548e-08
0.002002078942
1.187497858e-08
3.886650044e-09
0.002007355137
-1.79566292e-05
0.00201301896
-1.897821945e-05
0.002019317153
-2.107501944e-05
0.00202661014
-2.435616619e-05
0.002035312304
-2.899000313e-05
0.002045913404
-3.520931205e-05
0.002059002857
-4.331762111e-05
0.002075297479
-5.369574559e-05
0.002095673119
-6.680710783e-05
0.00212120037
-8.319931591e-05
0.002153183895
-0.0001034975797
0.002193203444
-0.0001283821156
0.002243150618
-0.0001585354294
0.002305244638
-0.0001945340225
0.002381983082
-0.0002366414449
0.00247593363
-0.0002844560556
0.002589278879
-0.0003365040112
0.002723333298
-0.0003903520318
0.002877596939
-0.0004432200892
0.003058986641
-0.0005067150228
0.003276909147
-0.0005616328579
0.003470137696
-0.0005458277487
0.003573976004
-0.0002606321624
0.003726943008
-0.0003731831557
0.003702795721
4.572860132e-05
0.003726949275
-4.575514301e-05
0.003573990239
0.0003731521088
0.003470161948
0.0002605928885
0.003276950421
0.0005457707371
0.003059050883
0.0005615578663
0.002877689347
0.0005066219349
0.002723462581
0.0004431002827
0.002589452786
0.0003902041797
0.002476162983
0.0003363198168
0.002382281435
0.0002842261086
0.002305629141
0.00023635355
0.002243643119
0.0001941724117
0.002193831793
0.00015807993
0.002153983584
0.0001278070216
0.00212221662
0.0001027701765
0.002096963522
8.227798866e-05
0.002076935365
6.563893582e-05
0.002061081579
5.221344348e-05
0.002048551776
4.143565621e-05
0.002038661528
3.281898758e-05
0.002030862603
2.595323962e-05
0.002024717605
2.049764879e-05
0.002019878701
1.617230696e-05
0.00201607001
1.2749322e-05
0.002013073181
1.004445756e-05
0.002010715689
7.9096128e-06
0.002008861394
6.226276746e-06
0.002007402982
4.899966391e-06
0.002006255932
3.85557944e-06
0.002005353717
3.03356201e-06
0.002004644
2.386782006e-06
0.002004085622
1.877996812e-06
0.002003646231
1.477814289e-06
0.002003300397
1.163061957e-06
0.002003028138
9.154858418e-07
0.002002813757
7.20713608e-07
0.002002644923
5.674340757e-07
0.002002511953
4.467481419e-07
0.002002407246
3.516537236e-07
0.002002324839
2.766407436e-07
0.002002260057
2.173708671e-07
0.002002209241
1.704237856e-07
0.002002169534
1.33099425e-07
0.002002138712
1.032583535e-07
0.00200211506
7.919808013e-08
0.002002097267
5.955371375e-08
0.002002084349
4.321653077e-08
0.002002075597
2.92712155e-08
0.002002070531
1.694177775e-08
5.545588685e-09
0.002006276024
-2.223265336e-05
0.002010804736
-2.350693173e-05
0.002015854017
-2.612430031e-05
0.002021723025
-3.022517435e-05
0.002028760105
-3.602708231e-05
0.002037383504
-4.383271131e-05
0.002048106
-5.404011672e-05
0.002061564659
-6.715440556e-05
0.002078557234
-8.379968212e-05
0.002100087105
-0.0001047291876
0.00212741957
-0.0001308300439
0.002162153524
-0.0001631160695
0.002206314022
-0.0002026959273
0.002262468738
-0.0002506887394
0.002333841686
-0.0003080143926
0.002424246667
-0.0003748610366
0.002537346597
-0.0004496039412
0.002676437167
-0.0005294426014
0.002853542996
-0.0006203259181
0.003059481588
-0.0007126536157
0.003350008562
-0.0008521598319
0.003470268468
-0.0006660876538
0.003726322847
-0.0005166865421
0.003868548647
-0.0005154089549
0.003902822198
1.145505029e-05
0.003868550001
-1.148294614e-05
0.003726328465
0.0005153736445
0.003470278247
0.0005166431065
0.003350032062
0.000666016922
0.003059523826
0.0008520661025
0.002853610509
0.0007125352514
0.002676536252
0.0006201745401
0.002537482112
0.00052925832
0.002424427565
0.0004493743638
0.002334078608
0.000374575065
0.002262775167
0.0003076569909
0.002206707185
0.0002502403938
0.00216265542
0.0002021316955
0.002128058266
0.0001624041754
0.002100898395
0.000129930048
0.002079586734
0.000103589649
0.002062870493
8.235517707e-05
0.002049762203
6.532173381e-05
0.002039484376
5.171348267e-05
0.002031425755
4.087760878e-05
0.00202510645
3.227254453e-05
0.002020150133
2.545396536e-05
0.002016261913
2.006052772e-05
0.002013210803
1.580043171e-05
0.002010815903
1.243935709e-05
0.002008935531
9.789984844e-06
0.0020074587
7.703108207e-06
0.002006298448
6.060218659e-06
0.002005386621
4.767406001e-06
0.002004669792
3.750391487e-06
0.002004106064
2.950509913e-06
0.002003662578
2.321482089e-06
0.002003313558
1.826834944e-06
0.002003038775
1.437845163e-06
0.002002822357
1.131903381e-06
0.002002651849
8.912220962e-07
0.002002517471
7.018116724e-07
0.00200241155
5.526686438e-07
0.002002328065
4.35139002e-07
0.002002262291
3.424149229e-07
0.002002210526
2.691358883e-07
0.002002169872
2.110775414e-07
0.002002138067
1.649049431e-07
0.002002113349
1.279764981e-07
0.002002094357
9.8189321e-08
0.002002080054
7.385667494e-08
0.002002069661
5.361027557e-08
0.002002062613
3.631932593e-08
0.00200205853
2.102454425e-08
6.882563129e-09
0.002004928655
-2.516130802e-05
0.002008037831
-2.661610812e-05
0.002011520503
-2.96069718e-05
0.002015595567
-3.43002391e-05
0.00202052345
-4.095496498e-05
0.0020266251
-4.993436115e-05
0.002034305886
-6.172090274e-05
0.002044086219
-7.693473898e-05
0.00205664119
-9.635465269e-05
0.002072852273
-0.0001209402704
0.002093875639
-0.0001518534102
0.002121234534
-0.0001904749647
0.002156949392
-0.0002384107848
0.002203736194
-0.0002974755424
0.002265347572
-0.0003696257702
0.002347052809
-0.0004565662734
0.002454207951
-0.0005567590832
0.002577311519
-0.0006525461698
0.002744788969
-0.0007878033677
0.002856396878
-0.0008242615243
0.003182183511
-0.001177946465
0
-0
0
-0
0
-0
0
-0
0
0
0
0
0
0
0.003182183032
0
0.002856409072
0.001177840063
0.002744827236
0.0008241170871
0.002577374198
0.0007876275777
0.002454296058
0.0006523364601
0.002347173788
0.0005564966336
0.002265508585
0.0004562402688
0.002203946214
0.0003692193621
0.002157219908
0.0002969666992
0.002121580286
0.0002377713174
0.002094315502
0.0001896689595
0.002073410377
0.0001508351732
0.00205734834
0.0001196516855
0.002044981712
9.472180499e-05
0.002035439832
7.486361455e-05
0.002028061399
5.909191579e-05
0.00202234361
4.659539699e-05
0.002017903612
3.671254304e-05
0.002014449276
2.890830114e-05
0.002011757133
2.275267121e-05
0.002009655746
1.79018186e-05
0.002008013213
1.408188999e-05
0.00200672776
1.107543753e-05
0.002005720655
8.710213125e-06
0.002004930846
6.850028311e-06
0.002004310887
5.3873648e-06
0.002003823844
4.237434425e-06
0.002003440918
3.333435502e-06
0.002003139624
2.622775911e-06
0.002002902387
2.064072509e-06
0.002002715455
1.624776945e-06
0.002002568061
1.279297153e-06
0.002002451768
1.007515232e-06
0.002002359962
7.936173727e-07
0.002002287458
6.25173244e-07
0.002002230186
4.92410777e-07
0.002002184958
3.876434864e-07
0.002002149272
3.048218692e-07
0.00200212117
2.39178887e-07
0.002002099125
1.869502428e-07
0.002002081946
1.45155656e-07
0.002002068712
1.114226159e-07
0.002002058722
8.384744932e-08
0.002002051446
6.088555045e-08
0.002002046505
4.126054428e-08
0.00200204364
2.389002861e-08
7.821573277e-09
0.002003388557
-2.654986519e-05
0.002004871979
-2.809953038e-05
0.002006553715
-3.128870716e-05
0.002008555452
-3.630197605e-05
0.002011029066
-4.342857903e-05
0.002014172361
-5.307765663e-05
0.002018250547
-6.579908885e-05
0.002023625929
-8.231012032e-05
0.002030798921
-0.0001035276446
0.002040464222
-0.0001306055721
0.002053587091
-0.0001649762788
0.002071506385
-0.000208394259
0.002096069836
-0.0002629742361
0.002129786547
-0.0003311922533
0.002175963622
-0.0004158028452
0.002239403251
-0.0005200059026
0.002331632918
-0.0006489887495
0.00245583637
-0.0007767496221
0.002731955148
-0.001063922145
0
-0
0
-0
0
-0
0
0
0
0
0
0
0
0
0
0
0
0
0
0
0
0
0.002731956323
0
0.002455853062
0.001063730838
0.002331664243
0.0007765252792
0.002239455616
0.000648705261
0.002176038857
0.0005196570274
0.00212988789
0.0004153703294
0.002096202086
0.0003306525031
0.002071676029
0.000262297375
0.002053802613
0.0002075423754
0.002040736577
0.000163901209
0.00203114217
0.0001292460923
0.002024058075
0.0001018058999
0.002018794613
8.0127077e-05
0.002014857789
6.302873933e-05
0.002011893549
4.955963727e-05
0.002009647319
3.895877274e-05
0.002007935067
3.062055278e-05
0.002006622831
2.406490758e-05
0.002005612333
1.89123167e-05
0.002004830895
1.486332813e-05
0.002004224345
1.16819875e-05
0.002003752003
9.182554562e-06
0.002003383113
7.218918414e-06
0.002003094279
5.676199301e-06
0.002002867606
4.464107485e-06
0.002002689343
3.51169853e-06
0.00200254888
2.763238996e-06
0.002002438001
2.174951188e-06
0.002002350327
1.712451017e-06
0.002002280889
1.348734613e-06
0.002002225812
1.062592458e-06
0.002002182066
8.373637132e-07
0.002002147279
6.599598127e-07
0.002002119594
5.20095999e-07
0.002002097553
4.096843854e-07
0.002002080014
3.223609067e-07
0.002002066081
2.531118481e-07
0.002002055053
1.97978119e-07
0.002002046384
1.538246258e-07
0.002002039651
1.181557424e-07
0.002002034529
8.896916419e-08
0.002002030775
6.4639833e-08
0.002002028211
4.382423456e-08
0.00200202672
2.538197793e-08
8.311071429e-09
0.002001745821
-2.629568657e-05
0.002001491267
-2.784497635e-05
0.002001239437
-3.103687652e-05
0.002001001334
-3.606387313e-05
0.002000802426
-4.32296717e-05
0.002000692952
-5.296818179e-05
0.00200076433
-6.58704676e-05
0.002001175101
-8.272089056e-05
0.002002191042
-0.0001045435863
0.002004245529
-0.0001326600588
0.002008028328
-0.0001687590782
0.002014620377
-0.0002149863074
0.002025733165
-0.0002740870237
0.002044231313
-0.0003496904022
0.002075205003
-0.0004467765345
0.002126950837
-0.0005717517371
0.002214904215
-0.0007369421268
0.002312333776
-0.0008741791831
0
-0
0
-0
0
-0
0
0
0
0
0
0
0
0
0
0
0
0
0
0
0
0
0
0
0
0
0.00231230184
0
0.002214879443
0.0008739476757
0.002126934246
0.0007366504584
0.002075191412
0.0005713998613
0.002044218957
0.0004463427837
0.002025720295
0.0003491511656
0.002014604958
0.0002734127119
0.002008007947
0.0002141393861
0.002004217277
0.0001676918791
0.00200215135
0.0001313120198
0.002001119525
0.0001028377244
0.002000687311
8.055929127e-05
0.002000587524
6.312852615e-05
0.002000659909
4.94872524e-05
0.002000810994
3.880768786e-05
0.002000988172
3.044337481e-05
0.002001163357
2.388972213e-05
0.002001322865
1.875280889e-05
0.002001461232
1.472496113e-05
0.002001577499
1.156572115e-05
0.002001673009
9.087044622e-06
0.002001750137
7.141790109e-06
0.002001811575
5.614760747e-06
0.002001859955
4.415727538e-06
0.002001897664
3.473989475e-06
0.002001926776
2.734127672e-06
0.002001949038
2.1526893e-06
0.002001965895
1.695593944e-06
0.002001978524
1.336105322e-06
0.002001987874
1.053242722e-06
0.002001994699
8.305382635e-07
0.002001999598
6.550613106e-07
0.002002003041
5.166529875e-07
0.002002005396
4.073286308e-07
0.002002006951
3.208062206e-07
0.002002007927
2.521361973e-07
0.002002008494
1.974113913e-07
0.002002008782
1.535362233e-07
0.002002008891
1.180462715e-07
0.002002008895
8.896522179e-08
0.002002008848
6.468674589e-08
0.00200200879
4.388268228e-08
0.002002008745
2.542649183e-08
8.327407084e-09
0.002000101163
-2.439684944e-05
0.001998102453
-2.584626626e-05
0.001995901193
-2.88356163e-05
0.001993389668
-3.355234881e-05
0.001990454277
-4.029428069e-05
0.001986977421
-4.949132537e-05
0.001982844548
-6.173759508e-05
0.00197796055
-7.783689183e-05
0.001972282399
-9.886543616e-05
0.001965877857
-0.0001262555159
0.001959018849
-0.0001619000702
0.001952299305
-0.0002082667638
0.001946708154
-0.0002684958728
0.001943552053
-0.0003465343012
0.001944835029
-0.0004480595106
0.001958586365
-0.0005855030724
0.00200372999
-0.000782085752
0.002092343474
-0.0009627926674
0
-0
0
0
0
0
0
0
0
0
0
0
0
0
0
0
0
0
0
0
0
0
0
0
0
0
0.002092262046
0
0.002003645138
0.0009625645833
0.001958497892
0.0007817977045
0.00194473251
0.0005851652431
0.001943427333
0.0004476479614
0.001946552236
0.0003460262625
0.001952101408
0.0002678635398
0.001958765683
0.0002074751107
0.001965552798
0.0001609047645
0.001971864459
0.0001250003587
0.0019774231
9.727908313e-05
0.001982153738
7.582865308e-05
0.001986090195
5.919206896e-05
0.001989315904
4.626154367e-05
0.001991930646
3.619294634e-05
0.001994033398
2.834062243e-05
0.001995714373
2.220874761e-05
0.001997052028
1.741515383e-05
0.001998112654
1.366433519e-05
0.001998951195
1.072718016e-05
0.001999612584
8.425655055e-06
0.002000133214
6.621159964e-06
0.002000542347
5.205628345e-06
0.00200086338
4.094693799e-06
0.002001114947
3.222423042e-06
0.002001311831
2.537243424e-06
0.002001465735
1.99878573e-06
0.002001585898
1.575430324e-06
0.002001679606
1.242397412e-06
0.002001752591
9.802576023e-07
0.00200180936
7.737697494e-07
0.00200185345
6.109715962e-07
0.002001887634
4.824685653e-07
0.002001914085
3.808777934e-07
0.0020019345
3.003910215e-07
0.002001950204
2.364320595e-07
0.002001962228
1.853876287e-07
0.002001971369
1.443947498e-07
0.002001978243
1.111731251e-07
0.002001983315
8.389266096e-08
0.002001986935
6.106635551e-08
0.002001989354
4.146384043e-08
0.00200199074
2.404037916e-08
7.876180161e-09
0.001998560385
-2.095723452e-05
0.001994923864
-2.220974508e-05
0.001990883684
-2.479543672e-05
0.001986213271
-2.888193538e-05
0.001980656126
-3.473713556e-05
0.001973915991
-4.27511905e-05
0.001965648514
-5.347011843e-05
0.00195545764
-6.764601753e-05
0.001942904576
-8.63123722e-05
0.001927548141
-0.000110899081
0.001909060644
-0.0001434125733
0.001887516674
-0.0001867227935
0.001864026468
-0.0002450056666
0.001841750138
-0.0003242579715
0.001825567575
-0.0004318769478
0.001811446399
-0.0005713818959
0.001743972718
-0.0007146120712
0
-0
0
-0
0
0
0
0
0
0
0
0
0
0
0
0
0
0
0
0
0
0
0
0
0
0
0
0
0
0
0.001743852944
0
0.001811296874
0.0007143537746
0.001825384505
0.0005710776123
0.001841522851
0.0004315096157
0.001863739252
0.0003238098611
0.001887150586
0.0002444522065
0.001908592396
0.0001860333008
0.001926948516
0.0001425486436
0.001942136547
0.0001098123282
0.001954474085
8.49415454e-05
0.001964389386
6.591335187e-05
0.001972304755
5.127670029e-05
0.001978595252
3.997104597e-05
0.001983578531
3.120966777e-05
0.001987516927
2.440222611e-05
0.001990623893
1.910178213e-05
0.001993071448
1.496759808e-05
0.001994997321
1.173846238e-05
0.001996511263
9.213238341e-06
0.001997700428
7.236490281e-06
0.001998633841
5.687747171e-06
0.001999366056
4.47341331e-06
0.00199994012
3.520629573e-06
0.002000389956
2.772586894e-06
0.002000742268
2.184931141e-06
0.00200101806
1.72299384e-06
0.002001233839
1.359651471e-06
0.00200140257
1.07366614e-06
0.002001534432
8.483964156e-07
0.002001637407
6.707939351e-07
0.002001717758
5.306205404e-07
0.00200178039
4.198369414e-07
0.002001829143
3.321252497e-07
0.002001867019
2.625145804e-07
0.002001896364
2.070874457e-07
0.002001919002
1.627495066e-07
0.002001936349
1.270478961e-07
0.002001949494
9.802782409e-08
0.002001959268
7.411892248e-08
0.00200196629
5.404425829e-08
0.002001971007
3.674618392e-08
0.002001973722
2.132555207e-08
6.990206793e-09
0.001997227204
-1.618443897e-05
0.001992170627
-1.715316718e-05
0.001986529644
-1.915445464e-05
0.001979968931
-2.232122176e-05
0.001972098446
-2.686665115e-05
0.001962449979
-3.310272346e-05
0.00195044855
-4.146868926e-05
0.001935376348
-5.257381493e-05
0.001916325644
-6.726166824e-05
0.001892134467
-8.670790475e-05
0.001861291412
-0.0001125695182
0.001821773665
-0.0001472050462
0.001770733678
-0.00019396568
0.001704000881
-0.0002575251745
0.001616486683
-0.0003443627497
0.001506867139
-0.0004617623518
0.001345886776
-0.0005536317082
0
-0
0
0
0
0
0
0
0
0
0
0
0
0
0
0
0
0
0
0
0
0
0
0
0
0
0
0
0
0
0.001345745144
0
0.001506679824
0.0005534190942
0.001616246837
0.0004615105995
0.001703691707
0.0003440647454
0.001770336625
0.0002571649435
0.001821264499
0.0001935243324
0.001860639131
0.0001466586691
0.001891299471
0.0001118883028
0.00191525735
8.585444912e-05
0.001934010161
6.618873484e-05
0.001948702006
5.122150703e-05
0.001960217831
3.976087494e-05
0.001969246402
3.094247505e-05
0.001976325665
2.413040497e-05
0.001981876615
1.885127577e-05
0.001986229095
1.474930277e-05
0.001989641683
1.155501003e-05
0.001992317155
9.062990239e-06
0.001994414548
7.115845224e-06
0.001996058602
5.592436311e-06
0.001997347157
4.39919189e-06
0.001998356955
3.46361577e-06
0.001999148185
2.729399701e-06
0.001999768054
2.152717884e-06
0.002000253584
1.699400882e-06
0.002000633808
1.34276941e-06
0.002000931493
1.061967062e-06
0.002001164487
8.406722778e-07
0.002001346783
6.661003531e-07
0.002001489348
5.282284685e-07
0.002001600776
4.191924009e-07
0.002001687797
3.328158818e-07
0.002001755679
2.642433689e-07
0.002001808541
2.096526981e-07
0.002001849599
1.660296795e-07
0.002001881357
1.309913226e-07
0.002001905758
1.026467456e-07
0.002001924299
7.948717398e-08
0.002001938119
6.029865116e-08
0.002001948071
4.409227735e-08
0.00200195477
3.004749797e-08
0.00200195863
1.746549861e-08
5.729570078e-09
0.001996194881
-1.037932037e-05
0.001990036997
-1.099528266e-05
0.001983150856
-1.226831347e-05
0.00197511371
-1.428407607e-05
0.001965427137
-1.718007856e-05
0.001953482015
-2.115760059e-05
0.001938512849
-2.649952391e-05
0.001919534877
-3.359584248e-05
0.00189525246
-4.297925174e-05
0.001863919103
-5.537454792e-05
0.001823119843
-7.17702577e-05
0.001769450606
-9.353580906e-05
0.001698116495
-0.0001226315689
0.001602478756
-0.000161887436
0.001473078895
-0.0002149628881
0.001303393877
-0.0002920773341
0
-0
0
-0
0
0
0
0
0
0
0
0
0
0
0
0
0
0
0
0
0
0
0
0
0
0
0
0
0
0
0
0
0
0
0.001303174182
0
0.001472793976
0.0002918908059
0.00160210739
0.0002147513312
0.001697635155
0.0001616371787
0.001768831014
0.0001223284731
0.001822325309
9.316437438e-05
0.001862902166
7.131144576e-05
0.001893952173
5.480444264e-05
0.001917873241
4.226766638e-05
0.001936390184
3.27045639e-05
0.001950770999
2.538006018e-05
0.00196196518
1.974829439e-05
0.001970693181
1.540240313e-05
0.001977506587
1.203787033e-05
0.001982830256
9.425633738e-06
0.001986992824
7.392441974e-06
0.001990249272
5.806541807e-06
0.001992797888
4.567229636e-06
0.001994793139
3.597184929e-06
0.001996355525
2.836806533e-06
0.001997579144
2.239996927e-06
0.001998537543
1.771000662e-06
0.001999288243
1.402017237e-06
0.001999876257
1.11138727e-06
0.002000336819
8.822068338e-07
0.002000697523
7.012638621e-07
0.002000979977
5.582182537e-07
0.002001201109
4.449684027e-07
0.002001374177
3.551596754e-07
0.002001509568
2.838021027e-07
0.002001615411
2.269729845e-07
0.002001698069
1.81584684e-07
0.002001762519
1.452027735e-07
0.002001812645
1.159039383e-07
0.002001851472
9.21642879e-08
0.002001881347
7.277133279e-08
0.00200190408
5.675476042e-08
0.002001921047
4.333097422e-08
0.002001933281
3.185914627e-08
0.002001941523
2.180532984e-08
0.002001946275
1.271274445e-08
4.176829954e-09
0.001995537709
-3.917029632e-06
0.001988678102
-4.135675525e-06
0.001980997275
-4.587485997e-06
0.001972015903
-5.302704868e-06
0.001961165642
-6.32981749e-06
0.001947747599
-7.73955712e-06
0.001930878619
-9.630544058e-06
0.001909419089
-1.213631195e-05
0.00188187191
-1.543207312e-05
0.001846233065
-1.97357032e-05
0.001799752428
-2.52896201e-05
0.001738525255
-3.230863654e-05
0.001656869888
-4.09762014e-05
0.001547200801
-5.221834938e-05
0.001404314317
-7.207640392e-05
0.001227746587
-0.0001155096047
0
-0
0
-0
0
0
0
0
0
0
0
0
0
0
0
0
0
0
0
0
0
0
0
0
0
0
0
0
0
0
0
0
0
0
0.001227510387
0
0.00140399415
0.0001154070428
0.001546782586
7.196289522e-05
0.001656330789
5.208897565e-05
0.001737832977
4.082628455e-05
0.00179886548
3.213187168e-05
0.001845098501
2.507842437e-05
0.001880422051
1.948089307e-05
0.001907567402
1.51223154e-05
0.001928514508
1.175745757e-05
0.001944729756
9.164812342e-06
0.00195731354
7.164510865e-06
0.001967098887
5.61705584e-06
0.001974720572
4.416185753e-06
0.001980664843
3.481362133e-06
0.001985305794
2.751491182e-06
0.001988932261
2.180074611e-06
0.001991767917
1.731573961e-06
0.001993986391
1.378710898e-06
0.001995722734
1.100463092e-06
0.001997082161
8.805707031e-07
0.001998146744
7.064171325e-07
0.001998980576
5.68185032e-07
0.001999633747
4.582162938e-07
0.00200014543
3.705238667e-07
0.002000546276
3.004176563e-07
0.002000860278
2.442168517e-07
0.002001106219
1.990275115e-07
0.002001298808
1.625703216e-07
0.002001449563
1.33046721e-07
0.002001567502
1.090345829e-07
0.002001659679
8.940712132e-08
0.002001731613
7.326896429e-08
0.002001787611
5.990608053e-08
0.002001831028
4.874692728e-08
0.002001864469
3.933123571e-08
0.002001889938
3.128542624e-08
0.002001908966
2.430322002e-08
0.002001922695
1.812979131e-08
0.002001931951
1.254900864e-08
0.002001937291
7.372736223e-09
2.431827209e-09
0.00199530379
2.779180024e-06
0.001988194436
2.973678572e-06
0.001980230852
3.376098252e-06
0.001970913719
4.014428072e-06
0.001959650273
4.933628487e-06
0.0019457112
6.199515877e-06
0.001928176303
7.904352902e-06
0.001905865939
1.017405186e-05
0.001877258315
1.317555131e-05
0.001840403687
1.711892444e-05
0.001792873884
2.224018343e-05
0.001731818243
2.874700417e-05
0.001654037689
3.68043523e-05
0.001554529553
4.728978707e-05
0.001416293852
6.61592967e-05
0.001192787858
0.0001079963898
0
0
0
0
0
0
0
0
0
0
0
0
0
0
0
0
0
0
0
0
0
0
0
0
0
0
0
0
0
0
0
0
0
-0
0.001192536717
-0
0.001415962512
-0.0001080187521
0.001554097347
-6.617194055e-05
0.001653477855
-4.729153191e-05
0.001731097855
-3.679371524e-05
0.001791950619
-2.872089289e-05
0.001839223047
-2.219400314e-05
0.001875750368
-1.704642792e-05
0.001903941166
-1.3068483e-05
0.001925720247
-1.002162286e-05
0.001942577596
-7.692537529e-06
0.001955652241
-5.910133933e-06
0.001965812454
-4.54315722e-06
0.001973721107
-3.492466694e-06
0.001979885849
-2.683380019e-06
0.001984696831
-2.059490529e-06
0.001988454908
-1.578002809e-06
0.001991392774
-1.206292361e-06
0.001993690864
-9.193784063e-07
0.001995489387
-6.980602293e-07
0.001996897491
-5.275338516e-07
0.001998000266
-3.963569221e-07
0.001998864119
-2.956686131e-07
0.001999540933
-2.185978126e-07
0.002000071268
-1.598112737e-07
0.002000486853
-1.151673614e-07
0.00200081252
-8.144925314e-08
0.002001067706
-5.615869057e-08
0.002001267633
-3.735652833e-08
0.002001424218
-2.353875089e-08
0.002001546793
-1.3539958e-08
0.002001642658
-6.458385626e-09
0.002001717524
-1.597328625e-09
0.00200177585
1.580473316e-09
0.002001821108
3.48860634e-09
0.002001855995
4.44493451e-09
0.002001882587
4.693564301e-09
0.002001902468
4.422089839e-09
0.002001916822
3.775229196e-09
0.002001926505
2.865947689e-09
0.002001932094
1.784375671e-09
6.053043457e-10
0.001995510304
9.268875753e-06
0.001988621864
9.862119218e-06
0.00198090925
1.108871191e-05
0.001971891445
1.303223293e-05
0.001960998224
1.582684932e-05
0.00194752877
1.966896995e-05
0.001930598421
2.483470208e-05
0.001909067535
3.170493787e-05
0.001881442383
4.080070327e-05
0.001845728087
5.283322007e-05
0.001799189547
6.877872375e-05
0.00173793361
9.000294166e-05
0.001656263399
0.0001184745633
0.001546564907
0.0001569882782
0.00140385856
0.0002088656439
0.001228285737
0.0002835692129
0
0
0
0
0
0
0
0
0
0
0
0
0
0
0
0
0
0
0
0
0
0
0
0
0
0
0
0
0
0
0
0
0
-0
0.001228054516
-0
0.001403541848
-0.0002835060831
0.00154614463
-0.0002087747231
0.001655716663
-0.0001568635652
0.001737229553
-0.0001183066045
0.00179828748
-8.977882018e-05
0.001844575263
-6.848178587e-05
0.001879970992
-5.244215692e-05
0.001907190735
-4.028822628e-05
0.00192820518
-3.103606747e-05
0.001944477223
-2.396458086e-05
0.00195710715
-1.854006128e-05
0.001966929331
-1.436533794e-05
0.001974580253
-1.114338839e-05
0.001980547772
-8.65089932e-06
0.001985207321
-6.719039312e-06
0.001988848793
-5.219474909e-06
0.001991696671
-4.054170394e-06
0.001993925199
-3.147906207e-06
0.001995669891
-2.442752175e-06
0.00199703631
-1.893953523e-06
0.001998106799
-1.466845068e-06
0.00199894565
-1.13452048e-06
0.001999603114
-8.760610645e-07
0.002000118485
-6.751822487e-07
0.002000522512
-5.19194357e-07
0.002000839264
-3.982016989e-07
0.002001087589
-3.04483394e-07
0.002001282246
-2.32013303e-07
0.002001434794
-1.760869458e-07
0.002001554285
-1.33031032e-07
0.002001647804
-9.997716978e-08
0.002001720891
-7.468493416e-08
0.002001777875
-5.540365541e-08
0.002001822128
-4.076421705e-08
0.002001856267
-2.969375983e-08
0.002001882309
-2.134885709e-08
0.002001901794
-1.506259226e-08
0.002001915871
-1.030225074e-08
0.002001925373
-6.635219625e-09
0.002001930858
-3.701046227e-09
-1.187919859e-09
0.001996141848
1.512702783e-05
0.001989928202
1.607576526e-05
0.001982980622
1.803629166e-05
0.001974872978
2.113987686e-05
0.00196510286
2.55969678e-05
0.001953056518
3.171531182e-05
0.001937963561
3.992765897e-05
0.001918835416
5.083308247e-05
0.001894377429
6.525869023e-05
0.0018628575
8.435314924e-05
0.001821905701
0.0001097305233
0.001768218716
0.0001436899268
0.001697159714
0.0001895335646
0.001602154536
0.0002519934561
0.001473239581
0.000337780599
0.001303393336
0.000453415458
0
0.000548844448
0
0
0
0
0
0
0
0
0
0
0
0
0
0
0
0
0
0
0
0
0
0
0
0
0
0
0
0
0
0
0
-0
0.001303192928
-0.0005487285849
0.001472950011
-0.0004532631662
0.001601768053